Built with Packmol
22140
    1LIG      O    1   2.627   2.620   0.038
    1LIG      C    2   2.692   2.670   0.126
    1LIG     C1    3   2.621   2.617   0.219
    1LIG     O1    4   2.685   2.667   0.308
    1LIG     C2    5   2.620   2.618   0.396
    1LIG     C3    6   2.691   2.673   0.487
    1LIG     O2    7   2.627   2.625   0.575
    1LIG     C4    8   2.690   2.675   0.664
    1LIG     C5    9   2.618   2.620   0.756
    1LIG     O3   10   2.681   2.670   0.844
    1LIG     C6   11   2.616   2.621   0.932
    1LIG     C7   12   2.688   2.677   1.023
    1LIG     O4   13   2.624   2.629   1.112
    1LIG     C8   14   2.688   2.679   1.200
    1LIG     C9   15   2.615   2.623   1.291
    1LIG     O5   16   2.679   2.673   1.379
    1LIG    C10   17   2.615   2.624   1.468
    1LIG    C11   18   2.687   2.680   1.559
    1LIG     O6   19   2.623   2.631   1.647
    1LIG    C12   20   2.686   2.680   1.735
    1LIG    C13   21   2.613   2.625   1.827
    1LIG     O7   22   2.677   2.674   1.915
    1LIG    C14   23   2.613   2.625   2.003
    1LIG    C15   24   2.685   2.680   2.095
    1LIG     O8   25   2.621   2.631   2.184
    1LIG    C16   26   2.685   2.681   2.272
    1LIG    C17   27   2.614   2.626   2.363
    1LIG     O9   28   2.677   2.675   2.452
    1LIG    C18   29   2.612   2.626   2.540
    1LIG    C19   30   2.684   2.681   2.631
    1LIG    O10   31   2.621   2.632   2.720
    1LIG    C20   32   2.685   2.682   2.807
    1LIG    C21   33   2.612   2.626   2.899
    1LIG    O11   34   2.676   2.675   2.987
    1LIG    C22   35   2.612   2.626   3.075
    1LIG    C23   36   2.684   2.682   3.166
    1LIG    O12   37   2.620   2.633   3.254
    1LIG    C24   38   2.684   2.682   3.343
    1LIG    C25   39   2.612   2.627   3.435
    1LIG    O13   40   2.675   2.676   3.524
    1LIG    C26   41   2.611   2.627   3.611
    1LIG    C27   42   2.683   2.682   3.703
    1LIG    O14   43   2.619   2.633   3.791
    1LIG    C28   44   2.684   2.682   3.879
    1LIG    C29   45   2.612   2.626   3.971
    1LIG    O15   46   2.676   2.675   4.059
    1LIG    C30   47   2.612   2.626   4.147
    1LIG    C31   48   2.684   2.681   4.238
    1LIG    O16   49   2.620   2.632   4.326
    1LIG    C32   50   2.684   2.681   4.415
    1LIG    C33   51   2.612   2.626   4.506
    1LIG    O17   52   2.676   2.675   4.595
    1LIG    C34   53   2.612   2.625   4.683
    1LIG    C35   54   2.684   2.680   4.774
    1LIG    O18   55   2.620   2.631   4.863
    1LIG    C36   56   2.684   2.680   4.951
    1LIG    C37   57   2.613   2.625   5.042
    1LIG    O19   58   2.677   2.674   5.131
    1LIG    C38   59   2.613   2.624   5.219
    1LIG    C39   60   2.684   2.679   5.311
    1LIG    O20   61   2.621   2.630   5.399
    1LIG    C40   62   2.685   2.679   5.487
    1LIG    C41   63   2.614   2.624   5.579
    1LIG    O21   64   2.677   2.673   5.667
    1LIG    C42   65   2.613   2.623   5.755
    1LIG    C43   66   2.685   2.678   5.846
    1LIG    O22   67   2.622   2.629   5.935
    1LIG    C44   68   2.686   2.678   6.023
    1LIG    C45   69   2.614   2.622   6.114
    1LIG    O23   70   2.678   2.671   6.202
    1LIG    C46   71   2.614   2.622   6.291
    1LIG    C47   72   2.687   2.678   6.382
    1LIG    O24   73   2.623   2.628   6.470
    1LIG    C48   74   2.686   2.677   6.558
    1LIG    C49   75   2.614   2.621   6.650
    1LIG    O25   76   2.678   2.670   6.738
    1LIG    C50   77   2.615   2.621   6.826
    1LIG    C51   78   2.687   2.677   6.917
    1LIG    O26   79   2.624   2.627   7.005
    1LIG    C52   80   2.687   2.676   7.094
    1LIG    C53   81   2.615   2.619   7.185
    1LIG    O27   82   2.679   2.669   7.273
    1LIG    C54   83   2.616   2.619   7.362
    1LIG    C55   84   2.688   2.675   7.454
    1LIG    O28   85   2.624   2.625   7.542
    1LIG    C56   86   2.688   2.674   7.630
    1LIG    C57   87   2.617   2.618   7.723
    1LIG    O29   88   2.681   2.667   7.811
    1LIG    C58   89   2.617   2.617   7.899
    1LIG    C59   90   2.688   2.672   7.991
    1LIG      H   91   2.689   2.780   0.125
    1LIG     H1   92   2.797   2.639   0.125
    1LIG     H2   93   2.624   2.508   0.219
    1LIG     H3   94   2.516   2.648   0.218
    1LIG     H4   95   2.623   2.508   0.397
    1LIG     H5   96   2.515   2.649   0.396
    1LIG     H6   97   2.689   2.783   0.486
    1LIG     H7   98   2.797   2.642   0.487
    1LIG     H8   99   2.688   2.784   0.664
    1LIG     H9  100   2.795   2.644   0.665
    1LIG    H10  101   2.621   2.511   0.755
    1LIG    H11  102   2.513   2.651   0.754
    1LIG    H12  103   2.619   2.512   0.933
    1LIG    H13  104   2.511   2.652   0.933
    1LIG    H14  105   2.685   2.787   1.022
    1LIG    H15  106   2.793   2.646   1.023
    1LIG    H16  107   2.685   2.788   1.201
    1LIG    H17  108   2.793   2.648   1.202
    1LIG    H18  109   2.618   2.514   1.290
    1LIG    H19  110   2.510   2.654   1.290
    1LIG    H20  111   2.617   2.514   1.469
    1LIG    H21  112   2.509   2.655   1.469
    1LIG    H22  113   2.684   2.789   1.558
    1LIG    H23  114   2.792   2.649   1.558
    1LIG    H24  115   2.683   2.789   1.736
    1LIG    H25  116   2.791   2.649   1.737
    1LIG    H26  117   2.616   2.515   1.826
    1LIG    H27  118   2.508   2.656   1.825
    1LIG    H28  119   2.616   2.515   2.004
    1LIG    H29  120   2.508   2.656   2.004
    1LIG    H30  121   2.682   2.790   2.094
    1LIG    H31  122   2.790   2.649   2.094
    1LIG    H32  123   2.682   2.791   2.272
    1LIG    H33  124   2.790   2.650   2.273
    1LIG    H34  125   2.616   2.517   2.362
    1LIG    H35  126   2.508   2.657   2.362
    1LIG    H36  127   2.615   2.516   2.541
    1LIG    H37  128   2.507   2.657   2.541
    1LIG    H38  129   2.681   2.791   2.630
    1LIG    H39  130   2.789   2.650   2.630
    1LIG    H40  131   2.682   2.791   2.809
    1LIG    H41  132   2.790   2.651   2.809
    1LIG    H42  133   2.615   2.517   2.897
    1LIG    H43  134   2.507   2.657   2.897
    1LIG    H44  135   2.615   2.517   3.076
    1LIG    H45  136   2.507   2.657   3.076
    1LIG    H46  137   2.681   2.792   3.165
    1LIG    H47  138   2.790   2.651   3.165
    1LIG    H48  139   2.681   2.791   3.344
    1LIG    H49  140   2.789   2.651   3.344
    1LIG    H50  141   2.615   2.517   3.434
    1LIG    H51  142   2.507   2.658   3.434
    1LIG    H52  143   2.614   2.517   3.612
    1LIG    H53  144   2.506   2.658   3.612
    1LIG    H54  145   2.680   2.792   3.702
    1LIG    H55  146   2.788   2.651   3.701
    1LIG    H56  147   2.681   2.791   3.880
    1LIG    H57  148   2.789   2.651   3.880
    1LIG    H58  149   2.615   2.517   3.970
    1LIG    H59  150   2.507   2.657   3.970
    1LIG    H60  151   2.615   2.516   4.148
    1LIG    H61  152   2.507   2.657   4.148
    1LIG    H62  153   2.681   2.791   4.237
    1LIG    H63  154   2.789   2.650   4.237
    1LIG    H64  155   2.681   2.790   4.416
    1LIG    H65  156   2.789   2.650   4.416
    1LIG    H66  157   2.615   2.516   4.505
    1LIG    H67  158   2.507   2.657   4.505
    1LIG    H68  159   2.615   2.516   4.683
    1LIG    H69  160   2.507   2.656   4.683
    1LIG    H70  161   2.681   2.790   4.773
    1LIG    H71  162   2.789   2.650   4.773
    1LIG    H72  163   2.681   2.790   4.952
    1LIG    H73  164   2.790   2.650   4.951
    1LIG    H74  165   2.616   2.516   5.041
    1LIG    H75  166   2.508   2.656   5.042
    1LIG    H76  167   2.616   2.515   5.219
    1LIG    H77  168   2.508   2.655   5.220
    1LIG    H78  169   2.681   2.788   5.310
    1LIG    H79  170   2.790   2.648   5.309
    1LIG    H80  171   2.682   2.789   5.488
    1LIG    H81  172   2.790   2.649   5.488
    1LIG    H82  173   2.617   2.514   5.577
    1LIG    H83  174   2.508   2.654   5.578
    1LIG    H84  175   2.617   2.513   5.756
    1LIG    H85  176   2.508   2.653   5.756
    1LIG    H86  177   2.682   2.788   5.845
    1LIG    H87  178   2.791   2.648   5.845
    1LIG    H88  179   2.683   2.788   6.024
    1LIG    H89  180   2.791   2.648   6.024
    1LIG    H90  181   2.617   2.513   6.113
    1LIG    H91  182   2.509   2.653   6.113
    1LIG    H92  183   2.618   2.512   6.292
    1LIG    H93  184   2.509   2.652   6.292
    1LIG    H94  185   2.683   2.787   6.381
    1LIG    H95  186   2.792   2.647   6.381
    1LIG    H96  187   2.683   2.786   6.560
    1LIG    H97  188   2.791   2.646   6.560
    1LIG    H98  189   2.618   2.511   6.648
    1LIG    H99  190   2.509   2.651   6.649
    1LIG   H100  191   2.618   2.511   6.827
    1LIG   H101  192   2.510   2.651   6.828
    1LIG   H102  193   2.684   2.786   6.916
    1LIG   H103  194   2.792   2.646   6.916
    1LIG   H104  195   2.684   2.785   7.095
    1LIG   H105  196   2.792   2.645   7.095
    1LIG   H106  197   2.619   2.510   7.184
    1LIG   H107  198   2.510   2.650   7.184
    1LIG   H108  199   2.620   2.510   7.363
    1LIG   H109  200   2.511   2.650   7.363
    1LIG   H110  201   2.684   2.784   7.453
    1LIG   H111  202   2.793   2.644   7.452
    1LIG   H112  203   2.685   2.784   7.631
    1LIG   H113  204   2.794   2.644   7.631
    1LIG   H114  205   2.621   2.509   7.721
    1LIG   H115  206   2.512   2.649   7.722
    1LIG   H116  207   2.621   2.507   7.899
    1LIG   H117  208   2.512   2.649   7.900
    1LIG   H118  209   2.793   2.642   7.991
    1LIG   H119  210   2.641   2.635   8.060
    1MOL     C1  211   3.203   2.647   4.028
    1MOL     H1  212   3.292   2.707   4.049
    1MOL     O1  213   3.177   2.574   4.146
    1MOL     C2  214   3.056   2.495   4.140
    1MOL     H2  215   2.971   2.559   4.115
    1MOL     C3  216   3.032   2.439   4.281
    1MOL     H3  217   3.128   2.436   4.334
    1MOL     H4  218   2.992   2.337   4.276
    1MOL     O2  219   2.943   2.521   4.356
    1MOL     H5  220   2.856   2.477   4.355
    1MOL     C4  221   3.225   2.551   3.910
    1MOL     H6  222   3.314   2.491   3.931
    1MOL     O3  223   3.250   2.619   3.788
    1MOL     H7  224   3.196   2.701   3.787
    1MOL     C5  225   3.104   2.459   3.897
    1MOL     H8  226   3.017   2.520   3.868
    1MOL     O4  227   3.126   2.358   3.798
    1MOL     H9  228   3.161   2.404   3.720
    1MOL     C6  229   3.070   2.390   4.028
    1MOL    H10  230   3.147   2.316   4.053
    1MOL     O5  231   2.944   2.325   4.006
    1MOL     C7  232   2.924   2.191   4.046
    1MOL    H11  233   3.019   2.143   4.071
    1MOL     O6  234   2.845   2.183   4.163
    1MOL     C8  235   2.716   2.247   4.152
    1MOL    H12  236   2.730   2.353   4.124
    1MOL     C9  237   2.653   2.243   4.289
    1MOL    H13  238   2.669   2.144   4.333
    1MOL    H14  239   2.545   2.261   4.281
    1MOL     O7  240   2.715   2.344   4.370
    1MOL    H15  241   2.692   2.329   4.462
    1MOL    C10  242   2.854   2.121   3.929
    1MOL    H16  243   2.843   2.015   3.955
    1MOL     O8  244   2.927   2.126   3.808
    1MOL    H17  245   2.973   2.213   3.803
    1MOL    C11  246   2.714   2.181   3.911
    1MOL    H18  247   2.725   2.285   3.880
    1MOL     O9  248   2.641   2.108   3.812
    1MOL    H19  249   2.702   2.098   3.737
    1MOL    C12  250   2.633   2.179   4.041
    1MOL    H20  251   2.610   2.076   4.069
    1MOL    O10  252   2.514   2.253   4.017
    1MOL    C13  253   2.386   2.193   4.036
    1MOL    H21  254   2.398   2.086   4.056
    1MOL    O11  255   2.320   2.247   4.148
    1MOL    C14  256   2.294   2.388   4.143
    1MOL    H22  257   2.390   2.442   4.144
    1MOL    C15  258   2.217   2.425   4.269
    1MOL    H23  259   2.213   2.535   4.275
    1MOL    H24  260   2.273   2.387   4.356
    1MOL    O12  261   2.087   2.369   4.262
    1MOL    H25  262   2.033   2.411   4.330
    1MOL    C16  263   2.304   2.217   3.909
    1MOL    H26  264   2.206   2.170   3.924
    1MOL    O13  265   2.359   2.159   3.792
    1MOL    H27  266   2.457   2.162   3.797
    1MOL    C17  267   2.284   2.367   3.891
    1MOL    H28  268   2.382   2.414   3.877
    1MOL    O14  269   2.201   2.394   3.778
    1MOL    H29  270   2.234   2.337   3.707
    1MOL    C18  271   2.218   2.428   4.014
    1MOL    H30  272   2.114   2.394   4.021
    1MOL    O15  273   2.224   2.570   3.998
    1MOL    C19  274   2.108   2.649   4.014
    1MOL    H31  275   2.019   2.586   4.028
    1MOL    O16  276   2.116   2.730   4.130
    1MOL    C20  277   2.231   2.817   4.134
    1MOL    H32  278   2.322   2.756   4.136
    1MOL    C21  279   2.224   2.896   4.264
    1MOL    H33  280   2.321   2.945   4.279
    1MOL    H34  281   2.207   2.825   4.346
    1MOL    O17  282   2.118   2.991   4.255
    1MOL    H35  283   2.126   3.050   4.332
    1MOL    C22  284   2.096   2.737   3.889
    1MOL    H36  285   2.007   2.799   3.899
    1MOL    O18  286   2.081   2.663   3.769
    1MOL    H37  287   2.138   2.584   3.772
    1MOL    C23  288   2.219   2.828   3.881
    1MOL    H38  289   2.308   2.765   3.867
    1MOL    O19  290   2.208   2.920   3.773
    1MOL    H39  291   2.179   2.868   3.697
    1MOL    C24  292   2.238   2.908   4.009
    1MOL    H40  293   2.161   2.985   4.016
    1MOL    O20  294   2.368   2.967   4.000
    1MOL    C25  295   2.390   3.100   4.041
    1MOL    H41  296   2.295   3.148   4.068
    1MOL    O21  297   2.471   3.106   4.156
    1MOL    C26  298   2.600   3.041   4.141
    1MOL    H42  299   2.582   2.937   4.112
    1MOL    C27  300   2.671   3.043   4.277
    1MOL    H43  301   2.728   2.951   4.290
    1MOL    H44  302   2.593   3.044   4.354
    1MOL    O22  303   2.754   3.156   4.298
    1MOL    H45  304   2.845   3.126   4.280
    1MOL    C28  305   2.457   3.172   3.922
    1MOL    H46  306   2.469   3.278   3.948
    1MOL    O23  307   2.380   3.168   3.804
    1MOL    H47  308   2.342   3.078   3.794
    1MOL    C29  309   2.596   3.111   3.900
    1MOL    H48  310   2.584   3.007   3.867
    1MOL    O24  311   2.668   3.185   3.800
    1MOL    H49  312   2.605   3.198   3.727
    1MOL    C30  313   2.677   3.112   4.028
    1MOL    H50  314   2.699   3.215   4.059
    1MOL    O25  315   2.799   3.043   3.999
    1MOL    C31  316   2.922   3.102   4.033
    1MOL    H51  317   2.909   3.208   4.058
    1MOL    O26  318   2.979   3.042   4.149
    1MOL    C32  319   3.000   2.899   4.139
    1MOL    H52  320   2.904   2.850   4.118
    1MOL    C33  321   3.050   2.851   4.276
    1MOL    H53  322   3.105   2.934   4.322
    1MOL    H54  323   3.120   2.768   4.262
    1MOL    O27  324   2.943   2.814   4.361
    1MOL    H55  325   2.938   2.716   4.360
    1MOL    C34  326   3.016   3.084   3.913
    1MOL    H56  327   3.111   3.135   3.936
    1MOL    O28  328   2.966   3.143   3.795
    1MOL    H57  329   2.868   3.135   3.794
    1MOL    C35  330   3.044   2.935   3.893
    1MOL    H58  331   2.949   2.887   3.866
    1MOL    O29  332   3.140   2.914   3.790
    1MOL    H59  333   3.112   2.970   3.716
    1MOL    C36  334   3.094   2.869   4.020
    1MOL    H60  335   3.197   2.903   4.042
    1MOL    O30  336   3.095   2.729   3.992
    2SOL     OW  337   0.230   0.628   0.113
    2SOL    HW1  338   0.137   0.626   0.150
    2SOL    HW2  339   0.231   0.589   0.021
    3SOL     OW  340   0.225   0.275   0.996
    3SOL    HW1  341   0.260   0.258   1.088
    3SOL    HW2  342   0.137   0.230   0.984
    4SOL     OW  343   0.019   0.368   0.647
    4SOL    HW1  344  -0.063   0.411   0.686
    4SOL    HW2  345  -0.009   0.295   0.584
    5SOL     OW  346   0.569   1.275   1.165
    5SOL    HW1  347   0.476   1.268   1.128
    5SOL    HW2  348   0.580   1.364   1.209
    6SOL     OW  349   1.555   1.511   0.703
    6SOL    HW1  350   1.498   1.495   0.784
    6SOL    HW2  351   1.496   1.521   0.623
    7SOL     OW  352   1.135   0.703   0.717
    7SOL    HW1  353   1.192   0.781   0.692
    7SOL    HW2  354   1.075   0.729   0.793
    8SOL     OW  355   1.755   0.607   0.231
    8SOL    HW1  356   1.743   0.594   0.132
    8SOL    HW2  357   1.725   0.526   0.280
    9SOL     OW  358   0.768   1.144   1.023
    9SOL    HW1  359   0.690   1.161   1.083
    9SOL    HW2  360   0.802   1.231   0.987
   10SOL     OW  361   0.850   0.798   1.823
   10SOL    HW1  362   0.846   0.874   1.888
   10SOL    HW2  363   0.872   0.834   1.732
   11SOL     OW  364   0.685   1.012   0.665
   11SOL    HW1  365   0.754   0.996   0.735
   11SOL    HW2  366   0.612   1.069   0.703
   12SOL     OW  367   0.686   1.161   1.803
   12SOL    HW1  368   0.746   1.240   1.817
   12SOL    HW2  369   0.600   1.192   1.762
   13SOL     OW  370   0.335   1.435   1.061
   13SOL    HW1  371   0.257   1.404   1.008
   13SOL    HW2  372   0.393   1.493   1.004
   14SOL     OW  373   1.460   1.505   1.339
   14SOL    HW1  374   1.484   1.599   1.365
   14SOL    HW2  375   1.444   1.451   1.421
   15SOL     OW  376   0.438   0.392   1.499
   15SOL    HW1  377   0.520   0.336   1.508
   15SOL    HW2  378   0.357   0.334   1.503
   16SOL     OW  379   1.603   0.447   0.737
   16SOL    HW1  380   1.529   0.493   0.687
   16SOL    HW2  381   1.654   0.515   0.790
   17SOL     OW  382   0.231   1.713   0.483
   17SOL    HW1  383   0.265   1.790   0.537
   17SOL    HW2  384   0.275   1.713   0.393
   18SOL     OW  385   1.127   1.341   1.690
   18SOL    HW1  386   1.174   1.341   1.778
   18SOL    HW2  387   1.079   1.254   1.679
   19SOL     OW  388   0.230   1.434   0.538
   19SOL    HW1  389   0.204   1.530   0.538
   19SOL    HW2  390   0.159   1.380   0.583
   20SOL     OW  391   0.240   1.091   0.886
   20SOL    HW1  392   0.254   1.007   0.938
   20SOL    HW2  393   0.185   1.155   0.941
   21SOL     OW  394   0.620   1.786   1.439
   21SOL    HW1  395   0.528   1.769   1.474
   21SOL    HW2  396   0.648   1.878   1.465
   22SOL     OW  397   0.606   0.964   0.123
   22SOL    HW1  398   0.613   1.048   0.069
   22SOL    HW2  399   0.652   0.977   0.211
   23SOL     OW  400   1.594   0.114   1.480
   23SOL    HW1  401   1.576   0.181   1.408
   23SOL    HW2  402   1.591   0.160   1.569
   24SOL     OW  403   0.122   0.643   0.563
   24SOL    HW1  404   0.077   0.555   0.580
   24SOL    HW2  405   0.121   0.697   0.647
   25SOL     OW  406   1.842   1.767   0.359
   25SOL    HW1  407   1.896   1.738   0.439
   25SOL    HW2  408   1.872   1.857   0.330
   26SOL     OW  409   0.027   1.596   0.117
   26SOL    HW1  410   0.008   1.500   0.138
   26SOL    HW2  411  -0.006   1.654   0.192
   27SOL     OW  412   1.689   0.922   0.612
   27SOL    HW1  413   1.784   0.893   0.620
   27SOL    HW2  414   1.681   0.987   0.537
   28SOL     OW  415   1.641   1.108   0.432
   28SOL    HW1  416   1.727   1.110   0.380
   28SOL    HW2  417   1.655   1.155   0.520
   29SOL     OW  418   0.113   0.737   1.597
   29SOL    HW1  419   0.201   0.724   1.642
   29SOL    HW2  420   0.100   0.834   1.575
   30SOL     OW  421   0.613   1.365   0.726
   30SOL    HW1  422   0.564   1.278   0.735
   30SOL    HW2  423   0.590   1.408   0.639
   31SOL     OW  424   1.293   1.228   1.423
   31SOL    HW1  425   1.330   1.155   1.365
   31SOL    HW2  426   1.345   1.233   1.508
   32SOL     OW  427   0.809   0.004   0.502
   32SOL    HW1  428   0.849   0.095   0.493
   32SOL    HW2  429   0.709   0.012   0.508
   33SOL     OW  430   0.197   0.976   1.264
   33SOL    HW1  431   0.286   0.931   1.250
   33SOL    HW2  432   0.124   0.911   1.245
   34SOL     OW  433   1.525   0.999   0.190
   34SOL    HW1  434   1.462   0.923   0.203
   34SOL    HW2  435   1.573   1.017   0.276
   35SOL     OW  436   1.187   1.792   1.616
   35SOL    HW1  437   1.211   1.852   1.540
   35SOL    HW2  438   1.194   1.697   1.586
   36SOL     OW  439   0.317   0.251   1.801
   36SOL    HW1  440   0.388   0.322   1.807
   36SOL    HW2  441   0.229   0.290   1.829
   37SOL     OW  442   1.466   1.417   0.953
   37SOL    HW1  443   1.407   1.423   1.033
   37SOL    HW2  444   1.451   1.329   0.907
   38SOL     OW  445   1.667   1.714   0.572
   38SOL    HW1  446   1.626   1.691   0.484
   38SOL    HW2  447   1.649   1.640   0.637
   39SOL     OW  448   0.598   0.729   0.270
   39SOL    HW1  449   0.622   0.798   0.202
   39SOL    HW2  450   0.520   0.762   0.324
   40SOL     OW  451   1.281   0.345   0.944
   40SOL    HW1  452   1.195   0.295   0.931
   40SOL    HW2  453   1.343   0.291   1.000
   41SOL     OW  454   1.576   1.662   0.307
   41SOL    HW1  455   1.665   1.708   0.310
   41SOL    HW2  456   1.555   1.638   0.212
   42SOL     OW  457   0.807   0.605   1.465
   42SOL    HW1  458   0.760   0.602   1.554
   42SOL    HW2  459   0.756   0.550   1.399
   43SOL     OW  460   1.394   0.469   1.674
   43SOL    HW1  461   1.374   0.512   1.762
   43SOL    HW2  462   1.472   0.407   1.683
   44SOL     OW  463   0.973   0.890   1.572
   44SOL    HW1  464   1.019   0.806   1.543
   44SOL    HW2  465   0.917   0.924   1.497
   45SOL     OW  466   0.991   0.410   1.242
   45SOL    HW1  467   0.914   0.444   1.296
   45SOL    HW2  468   0.957   0.359   1.163
   46SOL     OW  469   1.041   0.701   0.429
   46SOL    HW1  470   1.067   0.697   0.525
   46SOL    HW2  471   0.956   0.650   0.415
   47SOL     OW  472   0.076   0.811   0.789
   47SOL    HW1  473   0.175   0.799   0.798
   47SOL    HW2  474   0.052   0.906   0.810
   48SOL     OW  475   0.130   1.821   1.571
   48SOL    HW1  476   0.120   1.806   1.670
   48SOL    HW2  477   0.044   1.857   1.535
   49SOL     OW  478   0.865   0.348   0.195
   49SOL    HW1  479   0.924   0.411   0.146
   49SOL    HW2  480   0.884   0.254   0.166
   50SOL     OW  481   1.719   0.585   1.831
   50SOL    HW1  482   1.693   0.674   1.795
   50SOL    HW2  483   1.717   0.517   1.758
   51SOL     OW  484   1.362   1.144   0.545
   51SOL    HW1  485   1.445   1.115   0.497
   51SOL    HW2  486   1.313   1.211   0.489
   52SOL     OW  487   0.550   0.196   0.885
   52SOL    HW1  488   0.545   0.191   0.985
   52SOL    HW2  489   0.552   0.292   0.856
   53SOL     OW  490   1.008   1.456   0.477
   53SOL    HW1  491   0.962   1.528   0.425
   53SOL    HW2  492   1.004   1.476   0.575
   54SOL     OW  493   0.351   1.801   0.853
   54SOL    HW1  494   0.401   1.715   0.859
   54SOL    HW2  495   0.416   1.878   0.850
   55SOL     OW  496   1.795   1.066   0.873
   55SOL    HW1  497   1.733   1.051   0.797
   55SOL    HW2  498   1.743   1.077   0.958
   56SOL     OW  499   1.227   1.550   1.506
   56SOL    HW1  500   1.233   1.473   1.570
   56SOL    HW2  501   1.175   1.524   1.426
   57SOL     OW  502   0.321   0.943   0.242
   57SOL    HW1  503   0.403   0.982   0.200
   57SOL    HW2  504   0.294   0.861   0.193
   58SOL     OW  505   1.458   0.735   0.728
   58SOL    HW1  506   1.453   0.670   0.803
   58SOL    HW2  507   1.538   0.794   0.741
   59SOL     OW  508   0.461   1.266   1.727
   59SOL    HW1  509   0.411   1.267   1.641
   59SOL    HW2  510   0.398   1.248   1.803
   60SOL     OW  511   1.111   1.776   0.237
   60SOL    HW1  512   1.051   1.714   0.287
   60SOL    HW2  513   1.142   1.732   0.152
   61SOL     OW  514   0.202   0.285   1.498
   61SOL    HW1  515   0.122   0.345   1.485
   61SOL    HW2  516   0.192   0.236   1.584
   62SOL     OW  517   1.632   1.377   0.081
   62SOL    HW1  518   1.600   1.471   0.071
   62SOL    HW2  519   1.556   1.314   0.069
   63SOL     OW  520   0.464   1.743   0.323
   63SOL    HW1  521   0.497   1.782   0.409
   63SOL    HW2  522   0.540   1.736   0.258
   64SOL     OW  523   1.400   0.107   0.426
   64SOL    HW1  524   1.376   0.070   0.336
   64SOL    HW2  525   1.499   0.123   0.430
   65SOL     OW  526   0.249   1.785   1.241
   65SOL    HW1  527   0.306   1.720   1.291
   65SOL    HW2  528   0.233   1.752   1.148
   66SOL     OW  529   0.940   1.698   0.904
   66SOL    HW1  530   1.020   1.641   0.925
   66SOL    HW2  531   0.891   1.658   0.827
   67SOL     OW  532   0.382   0.700   0.480
   67SOL    HW1  533   0.427   0.610   0.477
   67SOL    HW2  534   0.288   0.689   0.513
   68SOL     OW  535   1.547   0.222   1.729
   68SOL    HW1  536   1.542   0.259   1.821
   68SOL    HW2  537   1.475   0.153   1.717
   69SOL     OW  538   0.614   0.122   0.117
   69SOL    HW1  539   0.712   0.100   0.124
   69SOL    HW2  540   0.583   0.105   0.024
   70SOL     OW  541   0.781   0.264   1.749
   70SOL    HW1  542   0.848   0.203   1.792
   70SOL    HW2  543   0.708   0.283   1.814
   71SOL     OW  544   0.888   1.514   1.195
   71SOL    HW1  545   0.865   1.489   1.101
   71SOL    HW2  546   0.949   1.445   1.234
   72SOL     OW  547   1.351   0.590   1.433
   72SOL    HW1  548   1.379   0.547   1.518
   72SOL    HW2  549   1.376   0.686   1.434
   73SOL     OW  550   0.803   1.402   0.924
   73SOL    HW1  551   0.893   1.416   0.882
   73SOL    HW2  552   0.732   1.404   0.853
   74SOL     OW  553   0.922   0.503   0.899
   74SOL    HW1  554   0.897   0.494   0.803
   74SOL    HW2  555   0.970   0.421   0.930
   75SOL     OW  556   0.539   0.064   0.512
   75SOL    HW1  557   0.458   0.065   0.570
   75SOL    HW2  558   0.542   0.147   0.457
   76SOL     OW  559   1.434   1.188   0.041
   76SOL    HW1  560   1.466   1.112   0.098
   76SOL    HW2  561   1.342   1.215   0.071
   77SOL     OW  562   0.297   0.035   0.171
   77SOL    HW1  563   0.346   0.119   0.150
   77SOL    HW2  564   0.359  -0.030   0.216
   78SOL     OW  565   0.935   0.236   0.480
   78SOL    HW1  566   0.887   0.277   0.402
   78SOL    HW2  567   1.034   0.234   0.461
   79SOL     OW  568   1.076   0.683   1.464
   79SOL    HW1  569   0.996   0.622   1.467
   79SOL    HW2  570   1.157   0.630   1.440
   80SOL     OW  571   1.227   1.570   0.793
   80SOL    HW1  572   1.248   1.644   0.728
   80SOL    HW2  573   1.295   1.570   0.866
   81SOL     OW  574   0.459   1.152   0.741
   81SOL    HW1  575   0.388   1.125   0.806
   81SOL    HW2  576   0.433   1.124   0.648
   82SOL     OW  577   1.271   1.797   0.591
   82SOL    HW1  578   1.315   1.861   0.527
   82SOL    HW2  579   1.221   1.849   0.661
   83SOL     OW  580   1.032   0.549   0.016
   83SOL    HW1  581   0.991   0.631  -0.023
   83SOL    HW2  582   1.096   0.575   0.089
   84SOL     OW  583   0.078   0.556   1.386
   84SOL    HW1  584   0.170   0.555   1.345
   84SOL    HW2  585   0.072   0.630   1.453
   85SOL     OW  586   0.561   0.222   1.147
   85SOL    HW1  587   0.599   0.138   1.184
   85SOL    HW2  588   0.473   0.241   1.191
   86SOL     OW  589   0.866   0.454   0.642
   86SOL    HW1  590   0.834   0.526   0.580
   86SOL    HW2  591   0.890   0.373   0.589
   87SOL     OW  592   1.017   0.039   0.753
   87SOL    HW1  593   0.945   0.044   0.684
   87SOL    HW2  594   0.993  -0.030   0.822
   88SOL     OW  595   1.429   1.173   0.867
   88SOL    HW1  596   1.374   1.089   0.860
   88SOL    HW2  597   1.455   1.202   0.775
   89SOL     OW  598   1.466   0.590   0.992
   89SOL    HW1  599   1.436   0.495   0.999
   89SOL    HW2  600   1.539   0.606   1.058
   90SOL     OW  601   1.857   0.833   0.377
   90SOL    HW1  602   1.899   0.769   0.441
   90SOL    HW2  603   1.819   0.782   0.299
   91SOL     OW  604   0.488   1.385   0.174
   91SOL    HW1  605   0.401   1.370   0.221
   91SOL    HW2  606   0.471   1.411   0.079
   92SOL     OW  607   1.664   1.280   0.657
   92SOL    HW1  608   1.763   1.288   0.671
   92SOL    HW2  609   1.619   1.364   0.688
   93SOL     OW  610   1.390   0.575   0.078
   93SOL    HW1  611   1.336   0.554   0.159
   93SOL    HW2  612   1.481   0.534   0.087
   94SOL     OW  613   0.527   0.256   0.328
   94SOL    HW1  614   0.554   0.197   0.253
   94SOL    HW2  615   0.527   0.351   0.297
   95SOL     OW  616   1.754   1.223   1.588
   95SOL    HW1  617   1.845   1.184   1.575
   95SOL    HW2  618   1.762   1.319   1.612
   96SOL     OW  619   1.064   1.347   1.340
   96SOL    HW1  620   0.984   1.324   1.395
   96SOL    HW2  621   1.147   1.321   1.389
   97SOL     OW  622   1.592   1.629   1.625
   97SOL    HW1  623   1.619   1.663   1.535
   97SOL    HW2  624   1.671   1.591   1.671
   98SOL     OW  625   1.111   1.195   1.100
   98SOL    HW1  626   1.071   1.239   1.181
   98SOL    HW2  627   1.070   1.232   1.017
   99SOL     OW  628   1.638   1.099   1.079
   99SOL    HW1  629   1.643   1.180   1.138
   99SOL    HW2  630   1.552   1.101   1.028
  100SOL     OW  631   0.915   0.089   1.402
  100SOL    HW1  632   0.940   0.069   1.307
  100SOL    HW2  633   0.987   0.145   1.444
  101SOL     OW  634   0.980   1.116   1.719
  101SOL    HW1  635   0.881   1.122   1.729
  101SOL    HW2  636   1.003   1.036   1.663
  102SOL     OW  637   0.705   1.050   0.368
  102SOL    HW1  638   0.691   1.057   0.467
  102SOL    HW2  639   0.789   0.999   0.350
  103SOL     OW  640   0.410   0.813   1.251
  103SOL    HW1  641   0.496   0.825   1.301
  103SOL    HW2  642   0.368   0.726   1.278
  104SOL     OW  643   1.274   0.386   1.262
  104SOL    HW1  644   1.295   0.460   1.326
  104SOL    HW2  645   1.185   0.403   1.219
  105SOL     OW  646   0.064   1.564   1.331
  105SOL    HW1  647   0.018   1.646   1.297
  105SOL    HW2  648   0.162   1.583   1.340
  106SOL     OW  649   0.367   1.100   0.501
  106SOL    HW1  650   0.360   1.183   0.445
  106SOL    HW2  651   0.371   1.020   0.441
  107SOL     OW  652   0.566   0.537   0.865
  107SOL    HW1  653   0.578   0.603   0.791
  107SOL    HW2  654   0.612   0.571   0.948
  108SOL     OW  655   1.252   1.348   0.388
  108SOL    HW1  656   1.302   1.425   0.428
  108SOL    HW2  657   1.157   1.350   0.420
  109SOL     OW  658   1.272   1.445   1.142
  109SOL    HW1  659   1.319   1.458   1.229
  109SOL    HW2  660   1.206   1.371   1.151
  110SOL     OW  661   1.582   0.639   0.472
  110SOL    HW1  662   1.551   0.700   0.545
  110SOL    HW2  663   1.632   0.691   0.403
  111SOL     OW  664   0.354   1.510   1.329
  111SOL    HW1  665   0.333   1.466   1.242
  111SOL    HW2  666   0.451   1.536   1.332
  112SOL     OW  667   0.402   0.751   1.598
  112SOL    HW1  668   0.470   0.806   1.551
  112SOL    HW2  669   0.442   0.663   1.625
  113SOL     OW  670   1.587   0.779   1.670
  113SOL    HW1  671   1.495   0.817   1.665
  113SOL    HW2  672   1.647   0.826   1.605
  114SOL     OW  673   1.013   0.105   1.770
  114SOL    HW1  674   1.019   0.190   1.718
  114SOL    HW2  675   1.045   0.029   1.713
  115SOL     OW  676   0.504   0.050   1.740
  115SOL    HW1  677   0.462  -0.007   1.670
  115SOL    HW2  678   0.438   0.119   1.772
  116SOL     OW  679   0.573   0.870   1.029
  116SOL    HW1  680   0.617   0.959   1.020
  116SOL    HW2  681   0.510   0.870   1.106
  117SOL     OW  682   1.360   0.862   1.045
  117SOL    HW1  683   1.285   0.862   0.979
  117SOL    HW2  684   1.397   0.770   1.054
  118SOL     OW  685   1.209   0.525   0.275
  118SOL    HW1  686   1.222   0.441   0.329
  118SOL    HW2  687   1.180   0.599   0.335
  119SOL     OW  688   0.307   0.213   1.231
  119SOL    HW1  689   0.284   0.250   1.321
  119SOL    HW2  690   0.277   0.118   1.225
  120SOL     OW  691   0.037   1.310   1.282
  120SOL    HW1  692   0.090   1.261   1.350
  120SOL    HW2  693   0.059   1.408   1.287
  121SOL     OW  694   0.732   0.634   1.064
  121SOL    HW1  695   0.791   0.608   0.988
  121SOL    HW2  696   0.704   0.730   1.053
  122SOL     OW  697   1.728   0.935   1.854
  122SOL    HW1  698   1.682   0.928   1.765
  122SOL    HW2  699   1.666   0.979   1.920
  123SOL     OW  700   0.307   0.063   0.618
  123SOL    HW1  701   0.296   0.157   0.651
  123SOL    HW2  702   0.302   0.000   0.695
  124SOL     OW  703   1.622   0.367   0.374
  124SOL    HW1  704   1.624   0.291   0.438
  124SOL    HW2  705   1.574   0.444   0.414
  125SOL     OW  706   1.023   0.766   0.966
  125SOL    HW1  707   1.038   0.787   1.062
  125SOL    HW2  708   0.993   0.671   0.957
  126SOL     OW  709   0.980   1.573   1.700
  126SOL    HW1  710   0.960   1.617   1.612
  126SOL    HW2  711   1.019   1.482   1.684
  127SOL     OW  712   1.859   1.518   1.605
  127SOL    HW1  713   1.873   1.545   1.510
  127SOL    HW2  714   1.942   1.540   1.658
  128SOL     OW  715   0.350   0.898   1.804
  128SOL    HW1  716   0.426   0.942   1.852
  128SOL    HW2  717   0.385   0.851   1.722
  129SOL     OW  718   1.540   0.274   0.125
  129SOL    HW1  719   1.479   0.199   0.148
  129SOL    HW2  720   1.562   0.326   0.208
  130SOL     OW  721   1.303   0.838   0.042
  130SOL    HW1  722   1.337   0.745   0.057
  130SOL    HW2  723   1.321   0.865  -0.053
  131SOL     OW  724   1.068   1.333   0.849
  131SOL    HW1  725   1.075   1.249   0.794
  131SOL    HW2  726   1.130   1.402   0.813
  132SOL     OW  727   0.319   0.810   0.949
  132SOL    HW1  728   0.412   0.846   0.954
  132SOL    HW2  729   0.313   0.725   1.001
  133SOL     OW  730   0.339   0.509   1.006
  133SOL    HW1  731   0.287   0.426   0.989
  133SOL    HW2  732   0.416   0.514   0.942
  134SOL     OW  733   1.138   0.380   1.678
  134SOL    HW1  734   1.093   0.443   1.742
  134SOL    HW2  735   1.231   0.411   1.661
  135SOL     OW  736   1.160   0.207   1.477
  135SOL    HW1  737   1.160   0.271   1.554
  135SOL    HW2  738   1.188   0.255   1.394
  136SOL     OW  739   0.008   1.326   0.200
  136SOL    HW1  740  -0.085   1.347   0.169
  136SOL    HW2  741   0.018   1.227   0.213
  137SOL     OW  742   0.088   1.801   0.927
  137SOL    HW1  743   0.046   1.715   0.900
  137SOL    HW2  744   0.182   1.804   0.893
  138SOL     OW  745   0.504   1.568   0.910
  138SOL    HW1  746   0.570   1.642   0.919
  138SOL    HW2  747   0.548   1.489   0.868
  139SOL     OW  748   1.002   0.796   1.238
  139SOL    HW1  749   1.043   0.764   1.324
  139SOL    HW2  750   0.906   0.769   1.235
  140SOL     OW  751   0.040   0.544   1.114
  140SOL    HW1  752   0.125   0.511   1.073
  140SOL    HW2  753   0.053   0.559   1.212
  141SOL     OW  754   0.189   0.520   1.722
  141SOL    HW1  755   0.248   0.480   1.652
  141SOL    HW2  756   0.131   0.591   1.681
  142SOL     OW  757   1.369   0.950   1.660
  142SOL    HW1  758   1.408   1.039   1.680
  142SOL    HW2  759   1.379   0.930   1.563
  143SOL     OW  760   0.815   0.572   0.325
  143SOL    HW1  761   0.822   0.483   0.279
  143SOL    HW2  762   0.721   0.606   0.317
  144SOL     OW  763   1.657   0.604   1.206
  144SOL    HW1  764   1.619   0.535   1.268
  144SOL    HW2  765   1.739   0.568   1.162
  145SOL     OW  766   0.252   1.564   1.744
  145SOL    HW1  767   0.222   1.621   1.820
  145SOL    HW2  768   0.245   1.467   1.770
  146SOL     OW  769   0.671   0.464   1.269
  146SOL    HW1  770   0.637   0.375   1.239
  146SOL    HW2  771   0.697   0.518   1.189
  147SOL     OW  772   0.930   1.678   1.465
  147SOL    HW1  773   0.906   1.660   1.370
  147SOL    HW2  774   0.960   1.772   1.475
  148SOL     OW  775   0.473   0.500   0.191
  148SOL    HW1  776   0.534   0.580   0.195
  148SOL    HW2  777   0.378   0.531   0.198
  149SOL     OW  778   0.159   1.137   1.466
  149SOL    HW1  779   0.181   1.076   1.542
  149SOL    HW2  780   0.169   1.088   1.380
  150SOL     OW  781   1.347   1.059   1.234
  150SOL    HW1  782   1.371   0.996   1.160
  150SOL    HW2  783   1.257   1.099   1.216
  151SOL     OW  784   1.302   0.855   0.309
  151SOL    HW1  785   1.216   0.824   0.351
  151SOL    HW2  786   1.298   0.841   0.210
  152SOL     OW  787   1.759   1.747   1.154
  152SOL    HW1  788   1.820   1.777   1.081
  152SOL    HW2  789   1.721   1.658   1.132
  153SOL     OW  790   1.252   1.731   1.128
  153SOL    HW1  791   1.336   1.736   1.074
  153SOL    HW2  792   1.229   1.635   1.146
  154SOL     OW  793   0.083   1.258   1.022
  154SOL    HW1  794   0.078   1.257   1.122
  154SOL    HW2  795   0.000   1.217   0.984
  155SOL     OW  796   0.688   1.662   1.716
  155SOL    HW1  797   0.632   1.743   1.725
  155SOL    HW2  798   0.740   1.666   1.630
  156SOL     OW  799   0.903   0.086   0.133
  156SOL    HW1  800   0.954   0.087   0.047
  156SOL    HW2  801   0.959   0.044   0.204
  157SOL     OW  802   1.726   0.135   0.523
  157SOL    HW1  803   1.799   0.118   0.456
  157SOL    HW2  804   1.695   0.048   0.561
  158SOL     OW  805   1.388   1.573   0.477
  158SOL    HW1  806   1.455   1.585   0.403
  158SOL    HW2  807   1.348   1.662   0.500
  159SOL     OW  808   0.130   1.794   1.851
  159SOL    HW1  809   0.089   1.720   1.904
  159SOL    HW2  810   0.194   1.845   1.909
  160SOL     OW  811   1.280   0.927   0.672
  160SOL    HW1  812   1.340   0.846   0.674
  160SOL    HW2  813   1.320   0.996   0.612
  161SOL     OW  814   0.830   1.273   1.422
  161SOL    HW1  815   0.825   1.306   1.517
  161SOL    HW2  816   0.744   1.292   1.376
  162SOL     OW  817   0.672   1.616   0.154
  162SOL    HW1  818   0.681   1.626   0.055
  162SOL    HW2  819   0.632   1.527   0.175
  163SOL     OW  820   1.650   1.720   1.394
  163SOL    HW1  821   1.703   1.730   1.310
  163SOL    HW2  822   1.623   1.810   1.428
  164SOL     OW  823   1.841   0.175   0.963
  164SOL    HW1  824   1.880   0.090   0.927
  164SOL    HW2  825   1.743   0.177   0.944
  165SOL     OW  826   0.263   0.326   0.720
  165SOL    HW1  827   0.184   0.377   0.686
  165SOL    HW2  828   0.254   0.311   0.818
  166SOL     OW  829   1.194   1.612   0.031
  166SOL    HW1  830   1.200   1.519   0.068
  166SOL    HW2  831   1.135   1.612  -0.049
  167SOL     OW  832   0.822   1.002   1.372
  167SOL    HW1  833   0.862   1.001   1.280
  167SOL    HW2  834   0.832   1.094   1.412
  168SOL     OW  835   0.916   0.910   0.291
  168SOL    HW1  836   0.979   0.948   0.223
  168SOL    HW2  837   0.956   0.827   0.330
  169SOL     OW  838   1.504   1.607   0.044
  169SOL    HW1  839   1.412   1.644   0.051
  169SOL    HW2  840   1.542   1.627  -0.046
  170SOL     OW  841   0.372   1.288   1.490
  170SOL    HW1  842   0.359   1.381   1.456
  170SOL    HW2  843   0.288   1.236   1.477
  171SOL     OW  844   1.614   1.292   1.289
  171SOL    HW1  845   1.674   1.295   1.369
  171SOL    HW2  846   1.539   1.356   1.302
  172SOL     OW  847   1.039   1.098   0.696
  172SOL    HW1  848   0.969   1.051   0.750
  172SOL    HW2  849   1.098   1.030   0.653
  173SOL     OW  850   1.014   0.236   0.971
  173SOL    HW1  851   1.006   0.200   0.878
  173SOL    HW2  852   1.012   0.160   1.036
  174SOL     OW  853   0.590   1.487   0.491
  174SOL    HW1  854   0.632   1.429   0.421
  174SOL    HW2  855   0.546   1.566   0.447
  175SOL     OW  856   1.709   0.385   1.381
  175SOL    HW1  857   1.782   0.454   1.385
  175SOL    HW2  858   1.737   0.310   1.322
  176SOL     OW  859   0.255   1.348   0.290
  176SOL    HW1  860   0.159   1.349   0.263
  176SOL    HW2  861   0.267   1.401   0.374
  177SOL     OW  862   0.105   1.013   1.726
  177SOL    HW1  863   0.028   0.980   1.780
  177SOL    HW2  864   0.190   0.983   1.768
  178SOL     OW  865   0.672   0.203   1.489
  178SOL    HW1  866   0.762   0.187   1.449
  178SOL    HW2  867   0.680   0.208   1.588
  179SOL     OW  868   0.075   0.345   0.033
  179SOL    HW1  869  -0.017   0.317   0.004
  179SOL    HW2  870   0.106   0.422  -0.023
  180SOL     OW  871   1.440   0.856   1.398
  180SOL    HW1  872   1.383   0.908   1.335
  180SOL    HW2  873   1.536   0.868   1.374
  181SOL     OW  874   0.072   0.166   0.318
  181SOL    HW1  875   0.055   0.249   0.264
  181SOL    HW2  876   0.162   0.129   0.296
  182SOL     OW  877   1.183   1.335   0.119
  182SOL    HW1  878   1.084   1.324   0.121
  182SOL    HW2  879   1.217   1.350   0.212
  183SOL     OW  880   0.613   0.842   1.431
  183SOL    HW1  881   0.669   0.923   1.414
  183SOL    HW2  882   0.672   0.762   1.434
  184SOL     OW  883   1.493   1.767   0.959
  184SOL    HW1  884   1.526   1.831   0.890
  184SOL    HW2  885   1.559   1.761   1.034
  185SOL     OW  886   0.716   0.565   1.708
  185SOL    HW1  887   0.735   0.630   1.782
  185SOL    HW2  888   0.776   0.485   1.717
  186SOL     OW  889   1.450   1.220   1.633
  186SOL    HW1  890   1.441   1.210   1.732
  186SOL    HW2  891   1.546   1.213   1.607
  187SOL     OW  892   0.390   1.741   1.560
  187SOL    HW1  893   0.299   1.782   1.558
  187SOL    HW2  894   0.383   1.647   1.592
  188SOL     OW  895   1.674   0.883   1.254
  188SOL    HW1  896   1.647   0.794   1.217
  188SOL    HW2  897   1.675   0.951   1.181
  189SOL     OW  898   1.225   0.325   0.449
  189SOL    HW1  899   1.290   0.251   0.438
  189SOL    HW2  900   1.245   0.375   0.533
  190SOL     OW  901   0.594   0.745   0.652
  190SOL    HW1  902   0.644   0.830   0.633
  190SOL    HW2  903   0.506   0.747   0.604
  191SOL     OW  904   1.777   0.342   1.642
  191SOL    HW1  905   1.760   0.373   1.548
  191SOL    HW2  906   1.693   0.305   1.680
  192SOL     OW  907   1.730   0.934   1.517
  192SOL    HW1  908   1.768   1.025   1.532
  192SOL    HW2  909   1.722   0.917   1.418
  193SOL     OW  910   0.859   1.374   0.016
  193SOL    HW1  911   0.813   1.389   0.104
  193SOL    HW2  912   0.903   1.459  -0.014
  194SOL     OW  913   0.661   1.790   0.953
  194SOL    HW1  914   0.615   1.878   0.940
  194SOL    HW2  915   0.760   1.802   0.946
  195SOL     OW  916   0.859   0.956   0.861
  195SOL    HW1  917   0.913   0.887   0.909
  195SOL    HW2  918   0.827   1.025   0.927
  196SOL     OW  919   1.083   0.984   0.087
  196SOL    HW1  920   1.060   1.037   0.005
  196SOL    HW2  921   1.164   0.928   0.068
  197SOL     OW  922   1.861   1.569   0.851
  197SOL    HW1  923   1.790   1.557   0.781
  197SOL    HW2  924   1.862   1.490   0.911
  198SOL     OW  925   0.221   1.314   1.844
  198SOL    HW1  926   0.156   1.241   1.823
  198SOL    HW2  927   0.225   1.328   1.942
  199SOL     OW  928   0.079   1.240   0.653
  199SOL    HW1  929   0.078   1.193   0.741
  199SOL    HW2  930   0.161   1.212   0.602
  200SOL     OW  931   0.672   1.391   1.624
  200SOL    HW1  932   0.594   1.341   1.662
  200SOL    HW2  933   0.669   1.486   1.655
  201SOL     OW  934   1.824   0.192   1.227
  201SOL    HW1  935   1.820   0.102   1.271
  201SOL    HW2  936   1.827   0.181   1.128
  202SOL     OW  937   0.428   0.424   0.520
  202SOL    HW1  938   0.458   0.352   0.458
  202SOL    HW2  939   0.389   0.384   0.603
  203SOL     OW  940   1.705   1.487   1.104
  203SOL    HW1  941   1.612   1.462   1.077
  203SOL    HW2  942   1.731   1.437   1.186
  204SOL     OW  943   0.317   0.547   1.280
  204SOL    HW1  944   0.355   0.488   1.352
  204SOL    HW2  945   0.357   0.521   1.192
  205SOL     OW  946   0.812   1.586   0.687
  205SOL    HW1  947   0.844   1.596   0.593
  205SOL    HW2  948   0.733   1.524   0.689
  206SOL     OW  949   1.424   0.214   1.112
  206SOL    HW1  950   1.476   0.149   1.167
  206SOL    HW2  951   1.375   0.277   1.173
  207SOL     OW  952   1.001   0.034   1.154
  207SOL    HW1  953   0.938  -0.038   1.123
  207SOL    HW2  954   1.094  -0.002   1.154
  208SOL     OW  955   0.770   1.330   0.301
  208SOL    HW1  956   0.724   1.243   0.318
  208SOL    HW2  957   0.861   1.327   0.342
  209SOL     OW  958   0.618   1.567   1.284
  209SOL    HW1  959   0.613   1.649   1.341
  209SOL    HW2  960   0.707   1.564   1.239
  210SOL     OW  961   1.352   0.052   0.168
  210SOL    HW1  962   1.387   0.011   0.084
  210SOL    HW2  963   1.262   0.014   0.188
  211SOL     OW  964   1.300   0.453   0.691
  211SOL    HW1  965   1.241   0.533   0.695
  211SOL    HW2  966   1.315   0.418   0.784
  212SOL     OW  967   1.593   0.221   0.882
  212SOL    HW1  968   1.509   0.220   0.936
  212SOL    HW2  969   1.595   0.304   0.826
  213SOL     OW  970   0.039   1.077   0.300
  213SOL    HW1  971   0.138   1.066   0.291
  213SOL    HW2  972  -0.001   0.991   0.332
  214SOL     OW  973   0.875   1.646   0.337
  214SOL    HW1  974   0.798   1.611   0.283
  214SOL    HW2  975   0.843   1.717   0.399
  215SOL     OW  976   0.230   0.628   1.975
  215SOL    HW1  977   0.137   0.626   2.012
  215SOL    HW2  978   0.231   0.589   1.883
  216SOL     OW  979   0.225   0.275   2.858
  216SOL    HW1  980   0.260   0.258   2.950
  216SOL    HW2  981   0.137   0.230   2.846
  217SOL     OW  982   0.019   0.368   2.509
  217SOL    HW1  983  -0.063   0.411   2.548
  217SOL    HW2  984  -0.009   0.295   2.446
  218SOL     OW  985   0.569   1.275   3.027
  218SOL    HW1  986   0.476   1.268   2.990
  218SOL    HW2  987   0.580   1.364   3.071
  219SOL     OW  988   1.555   1.511   2.565
  219SOL    HW1  989   1.498   1.495   2.646
  219SOL    HW2  990   1.496   1.521   2.485
  220SOL     OW  991   1.135   0.703   2.579
  220SOL    HW1  992   1.192   0.781   2.554
  220SOL    HW2  993   1.075   0.729   2.655
  221SOL     OW  994   1.755   0.607   2.093
  221SOL    HW1  995   1.743   0.594   1.994
  221SOL    HW2  996   1.725   0.526   2.142
  222SOL     OW  997   0.768   1.144   2.885
  222SOL    HW1  998   0.690   1.161   2.945
  222SOL    HW2  999   0.802   1.231   2.849
  223SOL     OW 1000   0.850   0.798   3.685
  223SOL    HW1 1001   0.846   0.874   3.750
  223SOL    HW2 1002   0.872   0.834   3.594
  224SOL     OW 1003   0.685   1.012   2.527
  224SOL    HW1 1004   0.754   0.996   2.597
  224SOL    HW2 1005   0.612   1.069   2.565
  225SOL     OW 1006   0.686   1.161   3.665
  225SOL    HW1 1007   0.746   1.240   3.679
  225SOL    HW2 1008   0.600   1.192   3.624
  226SOL     OW 1009   0.335   1.435   2.923
  226SOL    HW1 1010   0.257   1.404   2.870
  226SOL    HW2 1011   0.393   1.493   2.866
  227SOL     OW 1012   1.460   1.505   3.201
  227SOL    HW1 1013   1.484   1.599   3.227
  227SOL    HW2 1014   1.444   1.451   3.283
  228SOL     OW 1015   0.438   0.392   3.361
  228SOL    HW1 1016   0.520   0.336   3.370
  228SOL    HW2 1017   0.357   0.334   3.365
  229SOL     OW 1018   1.603   0.447   2.599
  229SOL    HW1 1019   1.529   0.493   2.549
  229SOL    HW2 1020   1.654   0.515   2.652
  230SOL     OW 1021   0.231   1.713   2.345
  230SOL    HW1 1022   0.265   1.790   2.399
  230SOL    HW2 1023   0.275   1.713   2.255
  231SOL     OW 1024   1.127   1.341   3.552
  231SOL    HW1 1025   1.174   1.341   3.640
  231SOL    HW2 1026   1.079   1.254   3.541
  232SOL     OW 1027   0.230   1.434   2.400
  232SOL    HW1 1028   0.204   1.530   2.400
  232SOL    HW2 1029   0.159   1.380   2.445
  233SOL     OW 1030   0.240   1.091   2.748
  233SOL    HW1 1031   0.254   1.007   2.800
  233SOL    HW2 1032   0.185   1.155   2.803
  234SOL     OW 1033   0.620   1.786   3.301
  234SOL    HW1 1034   0.528   1.769   3.336
  234SOL    HW2 1035   0.648   1.878   3.327
  235SOL     OW 1036   0.606   0.964   1.985
  235SOL    HW1 1037   0.613   1.048   1.931
  235SOL    HW2 1038   0.652   0.977   2.073
  236SOL     OW 1039   1.594   0.114   3.342
  236SOL    HW1 1040   1.576   0.181   3.270
  236SOL    HW2 1041   1.591   0.160   3.431
  237SOL     OW 1042   0.122   0.643   2.425
  237SOL    HW1 1043   0.077   0.555   2.442
  237SOL    HW2 1044   0.121   0.697   2.509
  238SOL     OW 1045   1.842   1.767   2.221
  238SOL    HW1 1046   1.896   1.738   2.301
  238SOL    HW2 1047   1.872   1.857   2.192
  239SOL     OW 1048   0.027   1.596   1.979
  239SOL    HW1 1049   0.008   1.500   2.000
  239SOL    HW2 1050  -0.006   1.654   2.054
  240SOL     OW 1051   1.689   0.922   2.474
  240SOL    HW1 1052   1.784   0.893   2.482
  240SOL    HW2 1053   1.681   0.987   2.399
  241SOL     OW 1054   1.641   1.108   2.294
  241SOL    HW1 1055   1.727   1.110   2.242
  241SOL    HW2 1056   1.655   1.155   2.382
  242SOL     OW 1057   0.113   0.737   3.459
  242SOL    HW1 1058   0.201   0.724   3.504
  242SOL    HW2 1059   0.100   0.834   3.437
  243SOL     OW 1060   0.613   1.365   2.588
  243SOL    HW1 1061   0.564   1.278   2.597
  243SOL    HW2 1062   0.590   1.408   2.501
  244SOL     OW 1063   1.293   1.228   3.285
  244SOL    HW1 1064   1.330   1.155   3.227
  244SOL    HW2 1065   1.345   1.233   3.370
  245SOL     OW 1066   0.809   0.004   2.364
  245SOL    HW1 1067   0.849   0.095   2.355
  245SOL    HW2 1068   0.709   0.012   2.370
  246SOL     OW 1069   0.197   0.976   3.126
  246SOL    HW1 1070   0.286   0.931   3.112
  246SOL    HW2 1071   0.124   0.911   3.107
  247SOL     OW 1072   1.525   0.999   2.052
  247SOL    HW1 1073   1.462   0.923   2.065
  247SOL    HW2 1074   1.573   1.017   2.138
  248SOL     OW 1075   1.187   1.792   3.478
  248SOL    HW1 1076   1.211   1.852   3.402
  248SOL    HW2 1077   1.194   1.697   3.448
  249SOL     OW 1078   0.317   0.251   3.663
  249SOL    HW1 1079   0.388   0.322   3.669
  249SOL    HW2 1080   0.229   0.290   3.691
  250SOL     OW 1081   1.466   1.417   2.815
  250SOL    HW1 1082   1.407   1.423   2.895
  250SOL    HW2 1083   1.451   1.329   2.769
  251SOL     OW 1084   1.667   1.714   2.434
  251SOL    HW1 1085   1.626   1.691   2.346
  251SOL    HW2 1086   1.649   1.640   2.499
  252SOL     OW 1087   0.598   0.729   2.132
  252SOL    HW1 1088   0.622   0.798   2.064
  252SOL    HW2 1089   0.520   0.762   2.186
  253SOL     OW 1090   1.281   0.345   2.806
  253SOL    HW1 1091   1.195   0.295   2.793
  253SOL    HW2 1092   1.343   0.291   2.862
  254SOL     OW 1093   1.576   1.662   2.169
  254SOL    HW1 1094   1.665   1.708   2.172
  254SOL    HW2 1095   1.555   1.638   2.074
  255SOL     OW 1096   0.807   0.605   3.327
  255SOL    HW1 1097   0.760   0.602   3.416
  255SOL    HW2 1098   0.756   0.550   3.261
  256SOL     OW 1099   1.394   0.469   3.536
  256SOL    HW1 1100   1.374   0.512   3.624
  256SOL    HW2 1101   1.472   0.407   3.545
  257SOL     OW 1102   0.973   0.890   3.434
  257SOL    HW1 1103   1.019   0.806   3.405
  257SOL    HW2 1104   0.917   0.924   3.359
  258SOL     OW 1105   0.991   0.410   3.104
  258SOL    HW1 1106   0.914   0.444   3.158
  258SOL    HW2 1107   0.957   0.359   3.025
  259SOL     OW 1108   1.041   0.701   2.291
  259SOL    HW1 1109   1.067   0.697   2.387
  259SOL    HW2 1110   0.956   0.650   2.277
  260SOL     OW 1111   0.076   0.811   2.651
  260SOL    HW1 1112   0.175   0.799   2.660
  260SOL    HW2 1113   0.052   0.906   2.672
  261SOL     OW 1114   0.130   1.821   3.433
  261SOL    HW1 1115   0.120   1.806   3.532
  261SOL    HW2 1116   0.044   1.857   3.397
  262SOL     OW 1117   0.865   0.348   2.057
  262SOL    HW1 1118   0.924   0.411   2.008
  262SOL    HW2 1119   0.884   0.254   2.028
  263SOL     OW 1120   1.719   0.585   3.693
  263SOL    HW1 1121   1.693   0.674   3.657
  263SOL    HW2 1122   1.717   0.517   3.620
  264SOL     OW 1123   1.362   1.144   2.407
  264SOL    HW1 1124   1.445   1.115   2.359
  264SOL    HW2 1125   1.313   1.211   2.351
  265SOL     OW 1126   0.550   0.196   2.747
  265SOL    HW1 1127   0.545   0.191   2.847
  265SOL    HW2 1128   0.552   0.292   2.718
  266SOL     OW 1129   1.008   1.456   2.339
  266SOL    HW1 1130   0.962   1.528   2.287
  266SOL    HW2 1131   1.004   1.476   2.437
  267SOL     OW 1132   0.351   1.801   2.715
  267SOL    HW1 1133   0.401   1.715   2.721
  267SOL    HW2 1134   0.416   1.878   2.712
  268SOL     OW 1135   1.795   1.066   2.735
  268SOL    HW1 1136   1.733   1.051   2.659
  268SOL    HW2 1137   1.743   1.077   2.820
  269SOL     OW 1138   1.227   1.550   3.368
  269SOL    HW1 1139   1.233   1.473   3.432
  269SOL    HW2 1140   1.175   1.524   3.288
  270SOL     OW 1141   0.321   0.943   2.104
  270SOL    HW1 1142   0.403   0.982   2.062
  270SOL    HW2 1143   0.294   0.861   2.055
  271SOL     OW 1144   1.458   0.735   2.590
  271SOL    HW1 1145   1.453   0.670   2.665
  271SOL    HW2 1146   1.538   0.794   2.603
  272SOL     OW 1147   0.461   1.266   3.589
  272SOL    HW1 1148   0.411   1.267   3.503
  272SOL    HW2 1149   0.398   1.248   3.665
  273SOL     OW 1150   1.111   1.776   2.099
  273SOL    HW1 1151   1.051   1.714   2.149
  273SOL    HW2 1152   1.142   1.732   2.014
  274SOL     OW 1153   0.202   0.285   3.360
  274SOL    HW1 1154   0.122   0.345   3.347
  274SOL    HW2 1155   0.192   0.236   3.446
  275SOL     OW 1156   1.632   1.377   1.943
  275SOL    HW1 1157   1.600   1.471   1.933
  275SOL    HW2 1158   1.556   1.314   1.931
  276SOL     OW 1159   0.464   1.743   2.185
  276SOL    HW1 1160   0.497   1.782   2.271
  276SOL    HW2 1161   0.540   1.736   2.120
  277SOL     OW 1162   1.400   0.107   2.288
  277SOL    HW1 1163   1.376   0.070   2.198
  277SOL    HW2 1164   1.499   0.123   2.292
  278SOL     OW 1165   0.249   1.785   3.103
  278SOL    HW1 1166   0.306   1.720   3.153
  278SOL    HW2 1167   0.233   1.752   3.010
  279SOL     OW 1168   0.940   1.698   2.766
  279SOL    HW1 1169   1.020   1.641   2.787
  279SOL    HW2 1170   0.891   1.658   2.689
  280SOL     OW 1171   0.382   0.700   2.342
  280SOL    HW1 1172   0.427   0.610   2.339
  280SOL    HW2 1173   0.288   0.689   2.375
  281SOL     OW 1174   1.547   0.222   3.591
  281SOL    HW1 1175   1.542   0.259   3.683
  281SOL    HW2 1176   1.475   0.153   3.579
  282SOL     OW 1177   0.614   0.122   1.979
  282SOL    HW1 1178   0.712   0.100   1.986
  282SOL    HW2 1179   0.583   0.105   1.886
  283SOL     OW 1180   0.781   0.264   3.611
  283SOL    HW1 1181   0.848   0.203   3.654
  283SOL    HW2 1182   0.708   0.283   3.676
  284SOL     OW 1183   0.888   1.514   3.057
  284SOL    HW1 1184   0.865   1.489   2.963
  284SOL    HW2 1185   0.949   1.445   3.096
  285SOL     OW 1186   1.351   0.590   3.295
  285SOL    HW1 1187   1.379   0.547   3.380
  285SOL    HW2 1188   1.376   0.686   3.296
  286SOL     OW 1189   0.803   1.402   2.786
  286SOL    HW1 1190   0.893   1.416   2.744
  286SOL    HW2 1191   0.732   1.404   2.715
  287SOL     OW 1192   0.922   0.503   2.761
  287SOL    HW1 1193   0.897   0.494   2.665
  287SOL    HW2 1194   0.970   0.421   2.792
  288SOL     OW 1195   0.539   0.064   2.374
  288SOL    HW1 1196   0.458   0.065   2.432
  288SOL    HW2 1197   0.542   0.147   2.319
  289SOL     OW 1198   1.434   1.188   1.903
  289SOL    HW1 1199   1.466   1.112   1.960
  289SOL    HW2 1200   1.342   1.215   1.933
  290SOL     OW 1201   0.297   0.035   2.033
  290SOL    HW1 1202   0.346   0.119   2.012
  290SOL    HW2 1203   0.359  -0.030   2.078
  291SOL     OW 1204   0.935   0.236   2.342
  291SOL    HW1 1205   0.887   0.277   2.264
  291SOL    HW2 1206   1.034   0.234   2.323
  292SOL     OW 1207   1.076   0.683   3.326
  292SOL    HW1 1208   0.996   0.622   3.329
  292SOL    HW2 1209   1.157   0.630   3.302
  293SOL     OW 1210   1.227   1.570   2.655
  293SOL    HW1 1211   1.248   1.644   2.590
  293SOL    HW2 1212   1.295   1.570   2.728
  294SOL     OW 1213   0.459   1.152   2.603
  294SOL    HW1 1214   0.388   1.125   2.668
  294SOL    HW2 1215   0.433   1.124   2.510
  295SOL     OW 1216   1.271   1.797   2.453
  295SOL    HW1 1217   1.315   1.861   2.389
  295SOL    HW2 1218   1.221   1.849   2.523
  296SOL     OW 1219   1.032   0.549   1.878
  296SOL    HW1 1220   0.991   0.631   1.839
  296SOL    HW2 1221   1.096   0.575   1.951
  297SOL     OW 1222   0.078   0.556   3.248
  297SOL    HW1 1223   0.170   0.555   3.207
  297SOL    HW2 1224   0.072   0.630   3.315
  298SOL     OW 1225   0.561   0.222   3.009
  298SOL    HW1 1226   0.599   0.138   3.046
  298SOL    HW2 1227   0.473   0.241   3.053
  299SOL     OW 1228   0.866   0.454   2.504
  299SOL    HW1 1229   0.834   0.526   2.442
  299SOL    HW2 1230   0.890   0.373   2.451
  300SOL     OW 1231   1.017   0.039   2.615
  300SOL    HW1 1232   0.945   0.044   2.546
  300SOL    HW2 1233   0.993  -0.030   2.684
  301SOL     OW 1234   1.429   1.173   2.729
  301SOL    HW1 1235   1.374   1.089   2.722
  301SOL    HW2 1236   1.455   1.202   2.637
  302SOL     OW 1237   1.466   0.590   2.854
  302SOL    HW1 1238   1.436   0.495   2.861
  302SOL    HW2 1239   1.539   0.606   2.920
  303SOL     OW 1240   1.857   0.833   2.239
  303SOL    HW1 1241   1.899   0.769   2.303
  303SOL    HW2 1242   1.819   0.782   2.161
  304SOL     OW 1243   0.488   1.385   2.036
  304SOL    HW1 1244   0.401   1.370   2.083
  304SOL    HW2 1245   0.471   1.411   1.941
  305SOL     OW 1246   1.664   1.280   2.519
  305SOL    HW1 1247   1.763   1.288   2.533
  305SOL    HW2 1248   1.619   1.364   2.550
  306SOL     OW 1249   1.390   0.575   1.940
  306SOL    HW1 1250   1.336   0.554   2.021
  306SOL    HW2 1251   1.481   0.534   1.949
  307SOL     OW 1252   0.527   0.256   2.190
  307SOL    HW1 1253   0.554   0.197   2.115
  307SOL    HW2 1254   0.527   0.351   2.159
  308SOL     OW 1255   1.754   1.223   3.450
  308SOL    HW1 1256   1.845   1.184   3.437
  308SOL    HW2 1257   1.762   1.319   3.474
  309SOL     OW 1258   1.064   1.347   3.202
  309SOL    HW1 1259   0.984   1.324   3.257
  309SOL    HW2 1260   1.147   1.321   3.251
  310SOL     OW 1261   1.592   1.629   3.487
  310SOL    HW1 1262   1.619   1.663   3.397
  310SOL    HW2 1263   1.671   1.591   3.533
  311SOL     OW 1264   1.111   1.195   2.962
  311SOL    HW1 1265   1.071   1.239   3.043
  311SOL    HW2 1266   1.070   1.232   2.879
  312SOL     OW 1267   1.638   1.099   2.941
  312SOL    HW1 1268   1.643   1.180   3.000
  312SOL    HW2 1269   1.552   1.101   2.890
  313SOL     OW 1270   0.915   0.089   3.264
  313SOL    HW1 1271   0.940   0.069   3.169
  313SOL    HW2 1272   0.987   0.145   3.306
  314SOL     OW 1273   0.980   1.116   3.581
  314SOL    HW1 1274   0.881   1.122   3.591
  314SOL    HW2 1275   1.003   1.036   3.525
  315SOL     OW 1276   0.705   1.050   2.230
  315SOL    HW1 1277   0.691   1.057   2.329
  315SOL    HW2 1278   0.789   0.999   2.212
  316SOL     OW 1279   0.410   0.813   3.113
  316SOL    HW1 1280   0.496   0.825   3.163
  316SOL    HW2 1281   0.368   0.726   3.140
  317SOL     OW 1282   1.274   0.386   3.124
  317SOL    HW1 1283   1.295   0.460   3.188
  317SOL    HW2 1284   1.185   0.403   3.081
  318SOL     OW 1285   0.064   1.564   3.193
  318SOL    HW1 1286   0.018   1.646   3.159
  318SOL    HW2 1287   0.162   1.583   3.202
  319SOL     OW 1288   0.367   1.100   2.363
  319SOL    HW1 1289   0.360   1.183   2.307
  319SOL    HW2 1290   0.371   1.020   2.303
  320SOL     OW 1291   0.566   0.537   2.727
  320SOL    HW1 1292   0.578   0.603   2.653
  320SOL    HW2 1293   0.612   0.571   2.810
  321SOL     OW 1294   1.252   1.348   2.250
  321SOL    HW1 1295   1.302   1.425   2.290
  321SOL    HW2 1296   1.157   1.350   2.282
  322SOL     OW 1297   1.272   1.445   3.004
  322SOL    HW1 1298   1.319   1.458   3.091
  322SOL    HW2 1299   1.206   1.371   3.013
  323SOL     OW 1300   1.582   0.639   2.334
  323SOL    HW1 1301   1.551   0.700   2.407
  323SOL    HW2 1302   1.632   0.691   2.265
  324SOL     OW 1303   0.354   1.510   3.191
  324SOL    HW1 1304   0.333   1.466   3.104
  324SOL    HW2 1305   0.451   1.536   3.194
  325SOL     OW 1306   0.402   0.751   3.460
  325SOL    HW1 1307   0.470   0.806   3.413
  325SOL    HW2 1308   0.442   0.663   3.487
  326SOL     OW 1309   1.587   0.779   3.532
  326SOL    HW1 1310   1.495   0.817   3.527
  326SOL    HW2 1311   1.647   0.826   3.467
  327SOL     OW 1312   1.013   0.105   3.632
  327SOL    HW1 1313   1.019   0.190   3.580
  327SOL    HW2 1314   1.045   0.029   3.575
  328SOL     OW 1315   0.504   0.050   3.602
  328SOL    HW1 1316   0.462  -0.007   3.532
  328SOL    HW2 1317   0.438   0.119   3.634
  329SOL     OW 1318   0.573   0.870   2.891
  329SOL    HW1 1319   0.617   0.959   2.882
  329SOL    HW2 1320   0.510   0.870   2.968
  330SOL     OW 1321   1.360   0.862   2.907
  330SOL    HW1 1322   1.285   0.862   2.841
  330SOL    HW2 1323   1.397   0.770   2.916
  331SOL     OW 1324   1.209   0.525   2.137
  331SOL    HW1 1325   1.222   0.441   2.191
  331SOL    HW2 1326   1.180   0.599   2.197
  332SOL     OW 1327   0.307   0.213   3.093
  332SOL    HW1 1328   0.284   0.250   3.183
  332SOL    HW2 1329   0.277   0.118   3.087
  333SOL     OW 1330   0.037   1.310   3.144
  333SOL    HW1 1331   0.090   1.261   3.212
  333SOL    HW2 1332   0.059   1.408   3.149
  334SOL     OW 1333   0.732   0.634   2.926
  334SOL    HW1 1334   0.791   0.608   2.850
  334SOL    HW2 1335   0.704   0.730   2.915
  335SOL     OW 1336   1.728   0.935   3.716
  335SOL    HW1 1337   1.682   0.928   3.627
  335SOL    HW2 1338   1.666   0.979   3.782
  336SOL     OW 1339   0.307   0.063   2.480
  336SOL    HW1 1340   0.296   0.157   2.513
  336SOL    HW2 1341   0.302   0.000   2.557
  337SOL     OW 1342   1.622   0.367   2.236
  337SOL    HW1 1343   1.624   0.291   2.300
  337SOL    HW2 1344   1.574   0.444   2.276
  338SOL     OW 1345   1.023   0.766   2.828
  338SOL    HW1 1346   1.038   0.787   2.924
  338SOL    HW2 1347   0.993   0.671   2.819
  339SOL     OW 1348   0.980   1.573   3.562
  339SOL    HW1 1349   0.960   1.617   3.474
  339SOL    HW2 1350   1.019   1.482   3.546
  340SOL     OW 1351   1.859   1.518   3.467
  340SOL    HW1 1352   1.873   1.545   3.372
  340SOL    HW2 1353   1.942   1.540   3.520
  341SOL     OW 1354   0.350   0.898   3.666
  341SOL    HW1 1355   0.426   0.942   3.714
  341SOL    HW2 1356   0.385   0.851   3.584
  342SOL     OW 1357   1.540   0.274   1.987
  342SOL    HW1 1358   1.479   0.199   2.010
  342SOL    HW2 1359   1.562   0.326   2.070
  343SOL     OW 1360   1.303   0.838   1.904
  343SOL    HW1 1361   1.337   0.745   1.919
  343SOL    HW2 1362   1.321   0.865   1.809
  344SOL     OW 1363   1.068   1.333   2.711
  344SOL    HW1 1364   1.075   1.249   2.656
  344SOL    HW2 1365   1.130   1.402   2.675
  345SOL     OW 1366   0.319   0.810   2.811
  345SOL    HW1 1367   0.412   0.846   2.816
  345SOL    HW2 1368   0.313   0.725   2.863
  346SOL     OW 1369   0.339   0.509   2.868
  346SOL    HW1 1370   0.287   0.426   2.851
  346SOL    HW2 1371   0.416   0.514   2.804
  347SOL     OW 1372   1.138   0.380   3.540
  347SOL    HW1 1373   1.093   0.443   3.604
  347SOL    HW2 1374   1.231   0.411   3.523
  348SOL     OW 1375   1.160   0.207   3.339
  348SOL    HW1 1376   1.160   0.271   3.416
  348SOL    HW2 1377   1.188   0.255   3.256
  349SOL     OW 1378   0.008   1.326   2.062
  349SOL    HW1 1379  -0.085   1.347   2.031
  349SOL    HW2 1380   0.018   1.227   2.075
  350SOL     OW 1381   0.088   1.801   2.789
  350SOL    HW1 1382   0.046   1.715   2.762
  350SOL    HW2 1383   0.182   1.804   2.755
  351SOL     OW 1384   0.504   1.568   2.772
  351SOL    HW1 1385   0.570   1.642   2.781
  351SOL    HW2 1386   0.548   1.489   2.730
  352SOL     OW 1387   1.002   0.796   3.100
  352SOL    HW1 1388   1.043   0.764   3.186
  352SOL    HW2 1389   0.906   0.769   3.097
  353SOL     OW 1390   0.040   0.544   2.976
  353SOL    HW1 1391   0.125   0.511   2.935
  353SOL    HW2 1392   0.053   0.559   3.074
  354SOL     OW 1393   0.189   0.520   3.584
  354SOL    HW1 1394   0.248   0.480   3.514
  354SOL    HW2 1395   0.131   0.591   3.543
  355SOL     OW 1396   1.369   0.950   3.522
  355SOL    HW1 1397   1.408   1.039   3.542
  355SOL    HW2 1398   1.379   0.930   3.425
  356SOL     OW 1399   0.815   0.572   2.187
  356SOL    HW1 1400   0.822   0.483   2.141
  356SOL    HW2 1401   0.721   0.606   2.179
  357SOL     OW 1402   1.657   0.604   3.068
  357SOL    HW1 1403   1.619   0.535   3.130
  357SOL    HW2 1404   1.739   0.568   3.024
  358SOL     OW 1405   0.252   1.564   3.606
  358SOL    HW1 1406   0.222   1.621   3.682
  358SOL    HW2 1407   0.245   1.467   3.632
  359SOL     OW 1408   0.671   0.464   3.131
  359SOL    HW1 1409   0.637   0.375   3.101
  359SOL    HW2 1410   0.697   0.518   3.051
  360SOL     OW 1411   0.930   1.678   3.327
  360SOL    HW1 1412   0.906   1.660   3.232
  360SOL    HW2 1413   0.960   1.772   3.337
  361SOL     OW 1414   0.473   0.500   2.053
  361SOL    HW1 1415   0.534   0.580   2.057
  361SOL    HW2 1416   0.378   0.531   2.060
  362SOL     OW 1417   0.159   1.137   3.328
  362SOL    HW1 1418   0.181   1.076   3.404
  362SOL    HW2 1419   0.169   1.088   3.242
  363SOL     OW 1420   1.347   1.059   3.096
  363SOL    HW1 1421   1.371   0.996   3.022
  363SOL    HW2 1422   1.257   1.099   3.078
  364SOL     OW 1423   1.302   0.855   2.171
  364SOL    HW1 1424   1.216   0.824   2.213
  364SOL    HW2 1425   1.298   0.841   2.072
  365SOL     OW 1426   1.759   1.747   3.016
  365SOL    HW1 1427   1.820   1.777   2.943
  365SOL    HW2 1428   1.721   1.658   2.994
  366SOL     OW 1429   1.252   1.731   2.990
  366SOL    HW1 1430   1.336   1.736   2.936
  366SOL    HW2 1431   1.229   1.635   3.008
  367SOL     OW 1432   0.083   1.258   2.884
  367SOL    HW1 1433   0.078   1.257   2.984
  367SOL    HW2 1434   0.000   1.217   2.846
  368SOL     OW 1435   0.688   1.662   3.578
  368SOL    HW1 1436   0.632   1.743   3.587
  368SOL    HW2 1437   0.740   1.666   3.492
  369SOL     OW 1438   1.726   0.135   2.385
  369SOL    HW1 1439   1.799   0.118   2.318
  369SOL    HW2 1440   1.695   0.048   2.423
  370SOL     OW 1441   1.388   1.573   2.339
  370SOL    HW1 1442   1.455   1.585   2.265
  370SOL    HW2 1443   1.348   1.662   2.362
  371SOL     OW 1444   0.130   1.794   3.713
  371SOL    HW1 1445   0.089   1.720   3.766
  371SOL    HW2 1446   0.194   1.845   3.771
  372SOL     OW 1447   1.280   0.927   2.534
  372SOL    HW1 1448   1.340   0.846   2.536
  372SOL    HW2 1449   1.320   0.996   2.474
  373SOL     OW 1450   0.830   1.273   3.284
  373SOL    HW1 1451   0.825   1.306   3.379
  373SOL    HW2 1452   0.744   1.292   3.238
  374SOL     OW 1453   0.672   1.616   2.016
  374SOL    HW1 1454   0.681   1.626   1.917
  374SOL    HW2 1455   0.632   1.527   2.037
  375SOL     OW 1456   1.650   1.720   3.256
  375SOL    HW1 1457   1.703   1.730   3.172
  375SOL    HW2 1458   1.623   1.810   3.290
  376SOL     OW 1459   1.841   0.175   2.825
  376SOL    HW1 1460   1.880   0.090   2.789
  376SOL    HW2 1461   1.743   0.177   2.806
  377SOL     OW 1462   0.263   0.326   2.582
  377SOL    HW1 1463   0.184   0.377   2.548
  377SOL    HW2 1464   0.254   0.311   2.680
  378SOL     OW 1465   1.194   1.612   1.893
  378SOL    HW1 1466   1.200   1.519   1.930
  378SOL    HW2 1467   1.135   1.612   1.813
  379SOL     OW 1468   0.822   1.002   3.234
  379SOL    HW1 1469   0.862   1.001   3.142
  379SOL    HW2 1470   0.832   1.094   3.274
  380SOL     OW 1471   0.916   0.910   2.153
  380SOL    HW1 1472   0.979   0.948   2.085
  380SOL    HW2 1473   0.956   0.827   2.192
  381SOL     OW 1474   1.504   1.607   1.906
  381SOL    HW1 1475   1.412   1.644   1.913
  381SOL    HW2 1476   1.542   1.627   1.816
  382SOL     OW 1477   0.372   1.288   3.352
  382SOL    HW1 1478   0.359   1.381   3.318
  382SOL    HW2 1479   0.288   1.236   3.339
  383SOL     OW 1480   1.614   1.292   3.151
  383SOL    HW1 1481   1.674   1.295   3.231
  383SOL    HW2 1482   1.539   1.356   3.164
  384SOL     OW 1483   1.039   1.098   2.558
  384SOL    HW1 1484   0.969   1.051   2.612
  384SOL    HW2 1485   1.098   1.030   2.515
  385SOL     OW 1486   1.014   0.236   2.833
  385SOL    HW1 1487   1.006   0.200   2.740
  385SOL    HW2 1488   1.012   0.160   2.898
  386SOL     OW 1489   0.590   1.487   2.353
  386SOL    HW1 1490   0.632   1.429   2.283
  386SOL    HW2 1491   0.546   1.566   2.309
  387SOL     OW 1492   1.709   0.385   3.243
  387SOL    HW1 1493   1.782   0.454   3.247
  387SOL    HW2 1494   1.737   0.310   3.184
  388SOL     OW 1495   0.255   1.348   2.152
  388SOL    HW1 1496   0.159   1.349   2.125
  388SOL    HW2 1497   0.267   1.401   2.236
  389SOL     OW 1498   0.105   1.013   3.588
  389SOL    HW1 1499   0.028   0.980   3.642
  389SOL    HW2 1500   0.190   0.983   3.630
  390SOL     OW 1501   0.672   0.203   3.351
  390SOL    HW1 1502   0.762   0.187   3.311
  390SOL    HW2 1503   0.680   0.208   3.450
  391SOL     OW 1504   0.075   0.345   1.895
  391SOL    HW1 1505  -0.017   0.317   1.866
  391SOL    HW2 1506   0.106   0.422   1.839
  392SOL     OW 1507   1.440   0.856   3.260
  392SOL    HW1 1508   1.383   0.908   3.197
  392SOL    HW2 1509   1.536   0.868   3.236
  393SOL     OW 1510   0.072   0.166   2.180
  393SOL    HW1 1511   0.055   0.249   2.126
  393SOL    HW2 1512   0.162   0.129   2.158
  394SOL     OW 1513   1.183   1.335   1.981
  394SOL    HW1 1514   1.084   1.324   1.983
  394SOL    HW2 1515   1.217   1.350   2.074
  395SOL     OW 1516   0.613   0.842   3.293
  395SOL    HW1 1517   0.669   0.923   3.276
  395SOL    HW2 1518   0.672   0.762   3.296
  396SOL     OW 1519   1.493   1.767   2.821
  396SOL    HW1 1520   1.526   1.831   2.752
  396SOL    HW2 1521   1.559   1.761   2.896
  397SOL     OW 1522   0.716   0.565   3.570
  397SOL    HW1 1523   0.735   0.630   3.644
  397SOL    HW2 1524   0.776   0.485   3.579
  398SOL     OW 1525   1.450   1.220   3.495
  398SOL    HW1 1526   1.441   1.210   3.594
  398SOL    HW2 1527   1.546   1.213   3.469
  399SOL     OW 1528   0.390   1.741   3.422
  399SOL    HW1 1529   0.299   1.782   3.420
  399SOL    HW2 1530   0.383   1.647   3.454
  400SOL     OW 1531   1.674   0.883   3.116
  400SOL    HW1 1532   1.647   0.794   3.079
  400SOL    HW2 1533   1.675   0.951   3.043
  401SOL     OW 1534   1.225   0.325   2.311
  401SOL    HW1 1535   1.290   0.251   2.300
  401SOL    HW2 1536   1.245   0.375   2.395
  402SOL     OW 1537   0.594   0.745   2.514
  402SOL    HW1 1538   0.644   0.830   2.495
  402SOL    HW2 1539   0.506   0.747   2.466
  403SOL     OW 1540   1.777   0.342   3.504
  403SOL    HW1 1541   1.760   0.373   3.410
  403SOL    HW2 1542   1.693   0.305   3.542
  404SOL     OW 1543   1.730   0.934   3.379
  404SOL    HW1 1544   1.768   1.025   3.394
  404SOL    HW2 1545   1.722   0.917   3.280
  405SOL     OW 1546   0.859   1.374   1.878
  405SOL    HW1 1547   0.813   1.389   1.966
  405SOL    HW2 1548   0.903   1.459   1.848
  406SOL     OW 1549   0.661   1.790   2.815
  406SOL    HW1 1550   0.615   1.878   2.802
  406SOL    HW2 1551   0.760   1.802   2.808
  407SOL     OW 1552   0.859   0.956   2.723
  407SOL    HW1 1553   0.913   0.887   2.771
  407SOL    HW2 1554   0.827   1.025   2.789
  408SOL     OW 1555   1.083   0.984   1.949
  408SOL    HW1 1556   1.060   1.037   1.867
  408SOL    HW2 1557   1.164   0.928   1.930
  409SOL     OW 1558   1.861   1.569   2.713
  409SOL    HW1 1559   1.790   1.557   2.643
  409SOL    HW2 1560   1.862   1.490   2.773
  410SOL     OW 1561   0.221   1.314   3.706
  410SOL    HW1 1562   0.156   1.241   3.685
  410SOL    HW2 1563   0.225   1.328   3.804
  411SOL     OW 1564   0.079   1.240   2.515
  411SOL    HW1 1565   0.078   1.193   2.603
  411SOL    HW2 1566   0.161   1.212   2.464
  412SOL     OW 1567   0.672   1.391   3.486
  412SOL    HW1 1568   0.594   1.341   3.524
  412SOL    HW2 1569   0.669   1.486   3.517
  413SOL     OW 1570   1.824   0.192   3.089
  413SOL    HW1 1571   1.820   0.102   3.133
  413SOL    HW2 1572   1.827   0.181   2.990
  414SOL     OW 1573   0.428   0.424   2.382
  414SOL    HW1 1574   0.458   0.352   2.320
  414SOL    HW2 1575   0.389   0.384   2.465
  415SOL     OW 1576   1.705   1.487   2.966
  415SOL    HW1 1577   1.612   1.462   2.939
  415SOL    HW2 1578   1.731   1.437   3.048
  416SOL     OW 1579   0.317   0.547   3.142
  416SOL    HW1 1580   0.355   0.488   3.214
  416SOL    HW2 1581   0.357   0.521   3.054
  417SOL     OW 1582   0.812   1.586   2.549
  417SOL    HW1 1583   0.844   1.596   2.455
  417SOL    HW2 1584   0.733   1.524   2.551
  418SOL     OW 1585   1.424   0.214   2.974
  418SOL    HW1 1586   1.476   0.149   3.029
  418SOL    HW2 1587   1.375   0.277   3.035
  419SOL     OW 1588   1.001   0.034   3.016
  419SOL    HW1 1589   0.938  -0.038   2.985
  419SOL    HW2 1590   1.094  -0.002   3.016
  420SOL     OW 1591   0.770   1.330   2.163
  420SOL    HW1 1592   0.724   1.243   2.180
  420SOL    HW2 1593   0.861   1.327   2.204
  421SOL     OW 1594   0.618   1.567   3.146
  421SOL    HW1 1595   0.613   1.649   3.203
  421SOL    HW2 1596   0.707   1.564   3.101
  422SOL     OW 1597   1.352   0.052   2.030
  422SOL    HW1 1598   1.387   0.011   1.946
  422SOL    HW2 1599   1.262   0.014   2.050
  423SOL     OW 1600   1.300   0.453   2.553
  423SOL    HW1 1601   1.241   0.533   2.557
  423SOL    HW2 1602   1.315   0.418   2.646
  424SOL     OW 1603   1.593   0.221   2.744
  424SOL    HW1 1604   1.509   0.220   2.798
  424SOL    HW2 1605   1.595   0.304   2.688
  425SOL     OW 1606   0.039   1.077   2.162
  425SOL    HW1 1607   0.138   1.066   2.153
  425SOL    HW2 1608  -0.001   0.991   2.194
  426SOL     OW 1609   0.875   1.646   2.199
  426SOL    HW1 1610   0.798   1.611   2.145
  426SOL    HW2 1611   0.843   1.717   2.261
  427SOL     OW 1612   0.230   0.628   3.837
  427SOL    HW1 1613   0.137   0.626   3.874
  427SOL    HW2 1614   0.231   0.589   3.745
  428SOL     OW 1615   0.225   0.275   4.720
  428SOL    HW1 1616   0.260   0.258   4.812
  428SOL    HW2 1617   0.137   0.230   4.708
  429SOL     OW 1618   0.019   0.368   4.371
  429SOL    HW1 1619  -0.063   0.411   4.410
  429SOL    HW2 1620  -0.009   0.295   4.308
  430SOL     OW 1621   0.569   1.275   4.889
  430SOL    HW1 1622   0.476   1.268   4.852
  430SOL    HW2 1623   0.580   1.364   4.933
  431SOL     OW 1624   1.555   1.511   4.427
  431SOL    HW1 1625   1.498   1.495   4.508
  431SOL    HW2 1626   1.496   1.521   4.347
  432SOL     OW 1627   1.135   0.703   4.441
  432SOL    HW1 1628   1.192   0.781   4.416
  432SOL    HW2 1629   1.075   0.729   4.517
  433SOL     OW 1630   1.755   0.607   3.955
  433SOL    HW1 1631   1.743   0.594   3.856
  433SOL    HW2 1632   1.725   0.526   4.004
  434SOL     OW 1633   0.768   1.144   4.747
  434SOL    HW1 1634   0.690   1.161   4.807
  434SOL    HW2 1635   0.802   1.231   4.711
  435SOL     OW 1636   0.850   0.798   5.547
  435SOL    HW1 1637   0.846   0.874   5.612
  435SOL    HW2 1638   0.872   0.834   5.456
  436SOL     OW 1639   0.685   1.012   4.389
  436SOL    HW1 1640   0.754   0.996   4.459
  436SOL    HW2 1641   0.612   1.069   4.427
  437SOL     OW 1642   0.686   1.161   5.527
  437SOL    HW1 1643   0.746   1.240   5.541
  437SOL    HW2 1644   0.600   1.192   5.486
  438SOL     OW 1645   0.335   1.435   4.785
  438SOL    HW1 1646   0.257   1.404   4.732
  438SOL    HW2 1647   0.393   1.493   4.728
  439SOL     OW 1648   1.460   1.505   5.063
  439SOL    HW1 1649   1.484   1.599   5.089
  439SOL    HW2 1650   1.444   1.451   5.145
  440SOL     OW 1651   0.438   0.392   5.223
  440SOL    HW1 1652   0.520   0.336   5.232
  440SOL    HW2 1653   0.357   0.334   5.227
  441SOL     OW 1654   1.603   0.447   4.461
  441SOL    HW1 1655   1.529   0.493   4.411
  441SOL    HW2 1656   1.654   0.515   4.514
  442SOL     OW 1657   0.231   1.713   4.207
  442SOL    HW1 1658   0.265   1.790   4.261
  442SOL    HW2 1659   0.275   1.713   4.117
  443SOL     OW 1660   1.127   1.341   5.414
  443SOL    HW1 1661   1.174   1.341   5.502
  443SOL    HW2 1662   1.079   1.254   5.403
  444SOL     OW 1663   0.230   1.434   4.262
  444SOL    HW1 1664   0.204   1.530   4.262
  444SOL    HW2 1665   0.159   1.380   4.307
  445SOL     OW 1666   0.240   1.091   4.610
  445SOL    HW1 1667   0.254   1.007   4.662
  445SOL    HW2 1668   0.185   1.155   4.665
  446SOL     OW 1669   0.620   1.786   5.163
  446SOL    HW1 1670   0.528   1.769   5.198
  446SOL    HW2 1671   0.648   1.878   5.189
  447SOL     OW 1672   0.606   0.964   3.847
  447SOL    HW1 1673   0.613   1.048   3.793
  447SOL    HW2 1674   0.652   0.977   3.935
  448SOL     OW 1675   1.594   0.114   5.204
  448SOL    HW1 1676   1.576   0.181   5.132
  448SOL    HW2 1677   1.591   0.160   5.293
  449SOL     OW 1678   0.122   0.643   4.287
  449SOL    HW1 1679   0.077   0.555   4.304
  449SOL    HW2 1680   0.121   0.697   4.371
  450SOL     OW 1681   1.842   1.767   4.083
  450SOL    HW1 1682   1.896   1.738   4.163
  450SOL    HW2 1683   1.872   1.857   4.054
  451SOL     OW 1684   0.027   1.596   3.841
  451SOL    HW1 1685   0.008   1.500   3.862
  451SOL    HW2 1686  -0.006   1.654   3.916
  452SOL     OW 1687   1.689   0.922   4.336
  452SOL    HW1 1688   1.784   0.893   4.344
  452SOL    HW2 1689   1.681   0.987   4.261
  453SOL     OW 1690   1.641   1.108   4.156
  453SOL    HW1 1691   1.727   1.110   4.104
  453SOL    HW2 1692   1.655   1.155   4.244
  454SOL     OW 1693   0.113   0.737   5.321
  454SOL    HW1 1694   0.201   0.724   5.366
  454SOL    HW2 1695   0.100   0.834   5.299
  455SOL     OW 1696   0.613   1.365   4.450
  455SOL    HW1 1697   0.564   1.278   4.459
  455SOL    HW2 1698   0.590   1.408   4.363
  456SOL     OW 1699   1.293   1.228   5.147
  456SOL    HW1 1700   1.330   1.155   5.089
  456SOL    HW2 1701   1.345   1.233   5.232
  457SOL     OW 1702   0.809   0.004   4.226
  457SOL    HW1 1703   0.849   0.095   4.217
  457SOL    HW2 1704   0.709   0.012   4.232
  458SOL     OW 1705   0.197   0.976   4.988
  458SOL    HW1 1706   0.286   0.931   4.974
  458SOL    HW2 1707   0.124   0.911   4.969
  459SOL     OW 1708   1.525   0.999   3.914
  459SOL    HW1 1709   1.462   0.923   3.927
  459SOL    HW2 1710   1.573   1.017   4.000
  460SOL     OW 1711   1.187   1.792   5.340
  460SOL    HW1 1712   1.211   1.852   5.264
  460SOL    HW2 1713   1.194   1.697   5.310
  461SOL     OW 1714   0.317   0.251   5.525
  461SOL    HW1 1715   0.388   0.322   5.531
  461SOL    HW2 1716   0.229   0.290   5.553
  462SOL     OW 1717   1.466   1.417   4.677
  462SOL    HW1 1718   1.407   1.423   4.757
  462SOL    HW2 1719   1.451   1.329   4.631
  463SOL     OW 1720   1.667   1.714   4.296
  463SOL    HW1 1721   1.626   1.691   4.208
  463SOL    HW2 1722   1.649   1.640   4.361
  464SOL     OW 1723   0.598   0.729   3.994
  464SOL    HW1 1724   0.622   0.798   3.926
  464SOL    HW2 1725   0.520   0.762   4.048
  465SOL     OW 1726   1.281   0.345   4.668
  465SOL    HW1 1727   1.195   0.295   4.655
  465SOL    HW2 1728   1.343   0.291   4.724
  466SOL     OW 1729   1.576   1.662   4.031
  466SOL    HW1 1730   1.665   1.708   4.034
  466SOL    HW2 1731   1.555   1.638   3.936
  467SOL     OW 1732   0.807   0.605   5.189
  467SOL    HW1 1733   0.760   0.602   5.278
  467SOL    HW2 1734   0.756   0.550   5.123
  468SOL     OW 1735   1.394   0.469   5.398
  468SOL    HW1 1736   1.374   0.512   5.486
  468SOL    HW2 1737   1.472   0.407   5.407
  469SOL     OW 1738   0.973   0.890   5.296
  469SOL    HW1 1739   1.019   0.806   5.267
  469SOL    HW2 1740   0.917   0.924   5.221
  470SOL     OW 1741   0.991   0.410   4.966
  470SOL    HW1 1742   0.914   0.444   5.020
  470SOL    HW2 1743   0.957   0.359   4.887
  471SOL     OW 1744   1.041   0.701   4.153
  471SOL    HW1 1745   1.067   0.697   4.249
  471SOL    HW2 1746   0.956   0.650   4.139
  472SOL     OW 1747   0.076   0.811   4.513
  472SOL    HW1 1748   0.175   0.799   4.522
  472SOL    HW2 1749   0.052   0.906   4.534
  473SOL     OW 1750   0.130   1.821   5.295
  473SOL    HW1 1751   0.120   1.806   5.394
  473SOL    HW2 1752   0.044   1.857   5.259
  474SOL     OW 1753   0.865   0.348   3.919
  474SOL    HW1 1754   0.924   0.411   3.870
  474SOL    HW2 1755   0.884   0.254   3.890
  475SOL     OW 1756   1.719   0.585   5.555
  475SOL    HW1 1757   1.693   0.674   5.519
  475SOL    HW2 1758   1.717   0.517   5.482
  476SOL     OW 1759   1.362   1.144   4.269
  476SOL    HW1 1760   1.445   1.115   4.221
  476SOL    HW2 1761   1.313   1.211   4.213
  477SOL     OW 1762   0.550   0.196   4.609
  477SOL    HW1 1763   0.545   0.191   4.709
  477SOL    HW2 1764   0.552   0.292   4.580
  478SOL     OW 1765   1.008   1.456   4.201
  478SOL    HW1 1766   0.962   1.528   4.149
  478SOL    HW2 1767   1.004   1.476   4.299
  479SOL     OW 1768   0.351   1.801   4.577
  479SOL    HW1 1769   0.401   1.715   4.583
  479SOL    HW2 1770   0.416   1.878   4.574
  480SOL     OW 1771   1.795   1.066   4.597
  480SOL    HW1 1772   1.733   1.051   4.521
  480SOL    HW2 1773   1.743   1.077   4.682
  481SOL     OW 1774   1.227   1.550   5.230
  481SOL    HW1 1775   1.233   1.473   5.294
  481SOL    HW2 1776   1.175   1.524   5.150
  482SOL     OW 1777   0.321   0.943   3.966
  482SOL    HW1 1778   0.403   0.982   3.924
  482SOL    HW2 1779   0.294   0.861   3.917
  483SOL     OW 1780   1.458   0.735   4.452
  483SOL    HW1 1781   1.453   0.670   4.527
  483SOL    HW2 1782   1.538   0.794   4.465
  484SOL     OW 1783   0.461   1.266   5.451
  484SOL    HW1 1784   0.411   1.267   5.365
  484SOL    HW2 1785   0.398   1.248   5.527
  485SOL     OW 1786   1.111   1.776   3.961
  485SOL    HW1 1787   1.051   1.714   4.011
  485SOL    HW2 1788   1.142   1.732   3.876
  486SOL     OW 1789   0.202   0.285   5.222
  486SOL    HW1 1790   0.122   0.345   5.209
  486SOL    HW2 1791   0.192   0.236   5.308
  487SOL     OW 1792   1.632   1.377   3.805
  487SOL    HW1 1793   1.600   1.471   3.795
  487SOL    HW2 1794   1.556   1.314   3.793
  488SOL     OW 1795   0.464   1.743   4.047
  488SOL    HW1 1796   0.497   1.782   4.133
  488SOL    HW2 1797   0.540   1.736   3.982
  489SOL     OW 1798   1.400   0.107   4.150
  489SOL    HW1 1799   1.376   0.070   4.060
  489SOL    HW2 1800   1.499   0.123   4.154
  490SOL     OW 1801   0.249   1.785   4.965
  490SOL    HW1 1802   0.306   1.720   5.015
  490SOL    HW2 1803   0.233   1.752   4.872
  491SOL     OW 1804   0.940   1.698   4.628
  491SOL    HW1 1805   1.020   1.641   4.649
  491SOL    HW2 1806   0.891   1.658   4.551
  492SOL     OW 1807   0.382   0.700   4.204
  492SOL    HW1 1808   0.427   0.610   4.201
  492SOL    HW2 1809   0.288   0.689   4.237
  493SOL     OW 1810   1.547   0.222   5.453
  493SOL    HW1 1811   1.542   0.259   5.545
  493SOL    HW2 1812   1.475   0.153   5.441
  494SOL     OW 1813   0.614   0.122   3.841
  494SOL    HW1 1814   0.712   0.100   3.848
  494SOL    HW2 1815   0.583   0.105   3.748
  495SOL     OW 1816   0.781   0.264   5.473
  495SOL    HW1 1817   0.848   0.203   5.516
  495SOL    HW2 1818   0.708   0.283   5.538
  496SOL     OW 1819   0.888   1.514   4.919
  496SOL    HW1 1820   0.865   1.489   4.825
  496SOL    HW2 1821   0.949   1.445   4.958
  497SOL     OW 1822   1.351   0.590   5.157
  497SOL    HW1 1823   1.379   0.547   5.242
  497SOL    HW2 1824   1.376   0.686   5.158
  498SOL     OW 1825   0.803   1.402   4.648
  498SOL    HW1 1826   0.893   1.416   4.606
  498SOL    HW2 1827   0.732   1.404   4.577
  499SOL     OW 1828   0.922   0.503   4.623
  499SOL    HW1 1829   0.897   0.494   4.527
  499SOL    HW2 1830   0.970   0.421   4.654
  500SOL     OW 1831   0.539   0.064   4.236
  500SOL    HW1 1832   0.458   0.065   4.294
  500SOL    HW2 1833   0.542   0.147   4.181
  501SOL     OW 1834   1.434   1.188   3.765
  501SOL    HW1 1835   1.466   1.112   3.822
  501SOL    HW2 1836   1.342   1.215   3.795
  502SOL     OW 1837   0.297   0.035   3.895
  502SOL    HW1 1838   0.346   0.119   3.874
  502SOL    HW2 1839   0.359  -0.030   3.940
  503SOL     OW 1840   0.935   0.236   4.204
  503SOL    HW1 1841   0.887   0.277   4.126
  503SOL    HW2 1842   1.034   0.234   4.185
  504SOL     OW 1843   1.076   0.683   5.188
  504SOL    HW1 1844   0.996   0.622   5.191
  504SOL    HW2 1845   1.157   0.630   5.164
  505SOL     OW 1846   1.227   1.570   4.517
  505SOL    HW1 1847   1.248   1.644   4.452
  505SOL    HW2 1848   1.295   1.570   4.590
  506SOL     OW 1849   0.459   1.152   4.465
  506SOL    HW1 1850   0.388   1.125   4.530
  506SOL    HW2 1851   0.433   1.124   4.372
  507SOL     OW 1852   1.271   1.797   4.315
  507SOL    HW1 1853   1.315   1.861   4.251
  507SOL    HW2 1854   1.221   1.849   4.385
  508SOL     OW 1855   1.032   0.549   3.740
  508SOL    HW1 1856   0.991   0.631   3.701
  508SOL    HW2 1857   1.096   0.575   3.813
  509SOL     OW 1858   0.078   0.556   5.110
  509SOL    HW1 1859   0.170   0.555   5.069
  509SOL    HW2 1860   0.072   0.630   5.177
  510SOL     OW 1861   0.561   0.222   4.871
  510SOL    HW1 1862   0.599   0.138   4.908
  510SOL    HW2 1863   0.473   0.241   4.915
  511SOL     OW 1864   0.866   0.454   4.366
  511SOL    HW1 1865   0.834   0.526   4.304
  511SOL    HW2 1866   0.890   0.373   4.313
  512SOL     OW 1867   1.017   0.039   4.477
  512SOL    HW1 1868   0.945   0.044   4.408
  512SOL    HW2 1869   0.993  -0.030   4.546
  513SOL     OW 1870   1.429   1.173   4.591
  513SOL    HW1 1871   1.374   1.089   4.584
  513SOL    HW2 1872   1.455   1.202   4.499
  514SOL     OW 1873   1.466   0.590   4.716
  514SOL    HW1 1874   1.436   0.495   4.723
  514SOL    HW2 1875   1.539   0.606   4.782
  515SOL     OW 1876   1.857   0.833   4.101
  515SOL    HW1 1877   1.899   0.769   4.165
  515SOL    HW2 1878   1.819   0.782   4.023
  516SOL     OW 1879   0.488   1.385   3.898
  516SOL    HW1 1880   0.401   1.370   3.945
  516SOL    HW2 1881   0.471   1.411   3.803
  517SOL     OW 1882   1.664   1.280   4.381
  517SOL    HW1 1883   1.763   1.288   4.395
  517SOL    HW2 1884   1.619   1.364   4.412
  518SOL     OW 1885   1.390   0.575   3.802
  518SOL    HW1 1886   1.336   0.554   3.883
  518SOL    HW2 1887   1.481   0.534   3.811
  519SOL     OW 1888   0.527   0.256   4.052
  519SOL    HW1 1889   0.554   0.197   3.977
  519SOL    HW2 1890   0.527   0.351   4.021
  520SOL     OW 1891   1.754   1.223   5.312
  520SOL    HW1 1892   1.845   1.184   5.299
  520SOL    HW2 1893   1.762   1.319   5.336
  521SOL     OW 1894   1.064   1.347   5.064
  521SOL    HW1 1895   0.984   1.324   5.119
  521SOL    HW2 1896   1.147   1.321   5.113
  522SOL     OW 1897   1.592   1.629   5.349
  522SOL    HW1 1898   1.619   1.663   5.259
  522SOL    HW2 1899   1.671   1.591   5.395
  523SOL     OW 1900   1.111   1.195   4.824
  523SOL    HW1 1901   1.071   1.239   4.905
  523SOL    HW2 1902   1.070   1.232   4.741
  524SOL     OW 1903   1.638   1.099   4.803
  524SOL    HW1 1904   1.643   1.180   4.862
  524SOL    HW2 1905   1.552   1.101   4.752
  525SOL     OW 1906   0.915   0.089   5.126
  525SOL    HW1 1907   0.940   0.069   5.031
  525SOL    HW2 1908   0.987   0.145   5.168
  526SOL     OW 1909   0.980   1.116   5.443
  526SOL    HW1 1910   0.881   1.122   5.453
  526SOL    HW2 1911   1.003   1.036   5.387
  527SOL     OW 1912   0.705   1.050   4.092
  527SOL    HW1 1913   0.691   1.057   4.191
  527SOL    HW2 1914   0.789   0.999   4.074
  528SOL     OW 1915   0.410   0.813   4.975
  528SOL    HW1 1916   0.496   0.825   5.025
  528SOL    HW2 1917   0.368   0.726   5.002
  529SOL     OW 1918   1.274   0.386   4.986
  529SOL    HW1 1919   1.295   0.460   5.050
  529SOL    HW2 1920   1.185   0.403   4.943
  530SOL     OW 1921   0.064   1.564   5.055
  530SOL    HW1 1922   0.018   1.646   5.021
  530SOL    HW2 1923   0.162   1.583   5.064
  531SOL     OW 1924   0.367   1.100   4.225
  531SOL    HW1 1925   0.360   1.183   4.169
  531SOL    HW2 1926   0.371   1.020   4.165
  532SOL     OW 1927   0.566   0.537   4.589
  532SOL    HW1 1928   0.578   0.603   4.515
  532SOL    HW2 1929   0.612   0.571   4.672
  533SOL     OW 1930   1.252   1.348   4.112
  533SOL    HW1 1931   1.302   1.425   4.152
  533SOL    HW2 1932   1.157   1.350   4.144
  534SOL     OW 1933   1.272   1.445   4.866
  534SOL    HW1 1934   1.319   1.458   4.953
  534SOL    HW2 1935   1.206   1.371   4.875
  535SOL     OW 1936   1.582   0.639   4.196
  535SOL    HW1 1937   1.551   0.700   4.269
  535SOL    HW2 1938   1.632   0.691   4.127
  536SOL     OW 1939   0.354   1.510   5.053
  536SOL    HW1 1940   0.333   1.466   4.966
  536SOL    HW2 1941   0.451   1.536   5.056
  537SOL     OW 1942   0.402   0.751   5.322
  537SOL    HW1 1943   0.470   0.806   5.275
  537SOL    HW2 1944   0.442   0.663   5.349
  538SOL     OW 1945   1.587   0.779   5.394
  538SOL    HW1 1946   1.495   0.817   5.389
  538SOL    HW2 1947   1.647   0.826   5.329
  539SOL     OW 1948   1.013   0.105   5.494
  539SOL    HW1 1949   1.019   0.190   5.442
  539SOL    HW2 1950   1.045   0.029   5.437
  540SOL     OW 1951   0.504   0.050   5.464
  540SOL    HW1 1952   0.462  -0.007   5.394
  540SOL    HW2 1953   0.438   0.119   5.496
  541SOL     OW 1954   0.573   0.870   4.753
  541SOL    HW1 1955   0.617   0.959   4.744
  541SOL    HW2 1956   0.510   0.870   4.830
  542SOL     OW 1957   1.360   0.862   4.769
  542SOL    HW1 1958   1.285   0.862   4.703
  542SOL    HW2 1959   1.397   0.770   4.778
  543SOL     OW 1960   1.209   0.525   3.999
  543SOL    HW1 1961   1.222   0.441   4.053
  543SOL    HW2 1962   1.180   0.599   4.059
  544SOL     OW 1963   0.307   0.213   4.955
  544SOL    HW1 1964   0.284   0.250   5.045
  544SOL    HW2 1965   0.277   0.118   4.949
  545SOL     OW 1966   0.037   1.310   5.006
  545SOL    HW1 1967   0.090   1.261   5.074
  545SOL    HW2 1968   0.059   1.408   5.011
  546SOL     OW 1969   0.732   0.634   4.788
  546SOL    HW1 1970   0.791   0.608   4.712
  546SOL    HW2 1971   0.704   0.730   4.777
  547SOL     OW 1972   1.728   0.935   5.578
  547SOL    HW1 1973   1.682   0.928   5.489
  547SOL    HW2 1974   1.666   0.979   5.644
  548SOL     OW 1975   0.307   0.063   4.342
  548SOL    HW1 1976   0.296   0.157   4.375
  548SOL    HW2 1977   0.302   0.000   4.419
  549SOL     OW 1978   1.622   0.367   4.098
  549SOL    HW1 1979   1.624   0.291   4.162
  549SOL    HW2 1980   1.574   0.444   4.138
  550SOL     OW 1981   1.023   0.766   4.690
  550SOL    HW1 1982   1.038   0.787   4.786
  550SOL    HW2 1983   0.993   0.671   4.681
  551SOL     OW 1984   0.980   1.573   5.424
  551SOL    HW1 1985   0.960   1.617   5.336
  551SOL    HW2 1986   1.019   1.482   5.408
  552SOL     OW 1987   1.859   1.518   5.329
  552SOL    HW1 1988   1.873   1.545   5.234
  552SOL    HW2 1989   1.942   1.540   5.382
  553SOL     OW 1990   0.350   0.898   5.528
  553SOL    HW1 1991   0.426   0.942   5.576
  553SOL    HW2 1992   0.385   0.851   5.446
  554SOL     OW 1993   1.540   0.274   3.849
  554SOL    HW1 1994   1.479   0.199   3.872
  554SOL    HW2 1995   1.562   0.326   3.932
  555SOL     OW 1996   1.303   0.838   3.766
  555SOL    HW1 1997   1.337   0.745   3.781
  555SOL    HW2 1998   1.321   0.865   3.671
  556SOL     OW 1999   1.068   1.333   4.573
  556SOL    HW1 2000   1.075   1.249   4.518
  556SOL    HW2 2001   1.130   1.402   4.537
  557SOL     OW 2002   0.319   0.810   4.673
  557SOL    HW1 2003   0.412   0.846   4.678
  557SOL    HW2 2004   0.313   0.725   4.725
  558SOL     OW 2005   0.339   0.509   4.730
  558SOL    HW1 2006   0.287   0.426   4.713
  558SOL    HW2 2007   0.416   0.514   4.666
  559SOL     OW 2008   1.138   0.380   5.402
  559SOL    HW1 2009   1.093   0.443   5.466
  559SOL    HW2 2010   1.231   0.411   5.385
  560SOL     OW 2011   1.160   0.207   5.201
  560SOL    HW1 2012   1.160   0.271   5.278
  560SOL    HW2 2013   1.188   0.255   5.118
  561SOL     OW 2014   0.008   1.326   3.924
  561SOL    HW1 2015  -0.085   1.347   3.893
  561SOL    HW2 2016   0.018   1.227   3.937
  562SOL     OW 2017   0.088   1.801   4.651
  562SOL    HW1 2018   0.046   1.715   4.624
  562SOL    HW2 2019   0.182   1.804   4.617
  563SOL     OW 2020   0.504   1.568   4.634
  563SOL    HW1 2021   0.570   1.642   4.643
  563SOL    HW2 2022   0.548   1.489   4.592
  564SOL     OW 2023   1.002   0.796   4.962
  564SOL    HW1 2024   1.043   0.764   5.048
  564SOL    HW2 2025   0.906   0.769   4.959
  565SOL     OW 2026   0.040   0.544   4.838
  565SOL    HW1 2027   0.125   0.511   4.797
  565SOL    HW2 2028   0.053   0.559   4.936
  566SOL     OW 2029   0.189   0.520   5.446
  566SOL    HW1 2030   0.248   0.480   5.376
  566SOL    HW2 2031   0.131   0.591   5.405
  567SOL     OW 2032   1.369   0.950   5.384
  567SOL    HW1 2033   1.408   1.039   5.404
  567SOL    HW2 2034   1.379   0.930   5.287
  568SOL     OW 2035   0.815   0.572   4.049
  568SOL    HW1 2036   0.822   0.483   4.003
  568SOL    HW2 2037   0.721   0.606   4.041
  569SOL     OW 2038   1.657   0.604   4.930
  569SOL    HW1 2039   1.619   0.535   4.992
  569SOL    HW2 2040   1.739   0.568   4.886
  570SOL     OW 2041   0.252   1.564   5.468
  570SOL    HW1 2042   0.222   1.621   5.544
  570SOL    HW2 2043   0.245   1.467   5.494
  571SOL     OW 2044   0.671   0.464   4.993
  571SOL    HW1 2045   0.637   0.375   4.963
  571SOL    HW2 2046   0.697   0.518   4.913
  572SOL     OW 2047   0.930   1.678   5.189
  572SOL    HW1 2048   0.906   1.660   5.094
  572SOL    HW2 2049   0.960   1.772   5.199
  573SOL     OW 2050   0.473   0.500   3.915
  573SOL    HW1 2051   0.534   0.580   3.919
  573SOL    HW2 2052   0.378   0.531   3.922
  574SOL     OW 2053   0.159   1.137   5.190
  574SOL    HW1 2054   0.181   1.076   5.266
  574SOL    HW2 2055   0.169   1.088   5.104
  575SOL     OW 2056   1.347   1.059   4.958
  575SOL    HW1 2057   1.371   0.996   4.884
  575SOL    HW2 2058   1.257   1.099   4.940
  576SOL     OW 2059   1.302   0.855   4.033
  576SOL    HW1 2060   1.216   0.824   4.075
  576SOL    HW2 2061   1.298   0.841   3.934
  577SOL     OW 2062   1.759   1.747   4.878
  577SOL    HW1 2063   1.820   1.777   4.805
  577SOL    HW2 2064   1.721   1.658   4.856
  578SOL     OW 2065   1.252   1.731   4.852
  578SOL    HW1 2066   1.336   1.736   4.798
  578SOL    HW2 2067   1.229   1.635   4.870
  579SOL     OW 2068   0.083   1.258   4.746
  579SOL    HW1 2069   0.078   1.257   4.846
  579SOL    HW2 2070   0.000   1.217   4.708
  580SOL     OW 2071   0.688   1.662   5.440
  580SOL    HW1 2072   0.632   1.743   5.449
  580SOL    HW2 2073   0.740   1.666   5.354
  581SOL     OW 2074   1.726   0.135   4.247
  581SOL    HW1 2075   1.799   0.118   4.180
  581SOL    HW2 2076   1.695   0.048   4.285
  582SOL     OW 2077   1.388   1.573   4.201
  582SOL    HW1 2078   1.455   1.585   4.127
  582SOL    HW2 2079   1.348   1.662   4.224
  583SOL     OW 2080   0.130   1.794   5.575
  583SOL    HW1 2081   0.089   1.720   5.628
  583SOL    HW2 2082   0.194   1.845   5.633
  584SOL     OW 2083   1.280   0.927   4.396
  584SOL    HW1 2084   1.340   0.846   4.398
  584SOL    HW2 2085   1.320   0.996   4.336
  585SOL     OW 2086   0.830   1.273   5.146
  585SOL    HW1 2087   0.825   1.306   5.241
  585SOL    HW2 2088   0.744   1.292   5.100
  586SOL     OW 2089   0.672   1.616   3.878
  586SOL    HW1 2090   0.681   1.626   3.779
  586SOL    HW2 2091   0.632   1.527   3.899
  587SOL     OW 2092   1.650   1.720   5.118
  587SOL    HW1 2093   1.703   1.730   5.034
  587SOL    HW2 2094   1.623   1.810   5.152
  588SOL     OW 2095   1.841   0.175   4.687
  588SOL    HW1 2096   1.880   0.090   4.651
  588SOL    HW2 2097   1.743   0.177   4.668
  589SOL     OW 2098   0.263   0.326   4.444
  589SOL    HW1 2099   0.184   0.377   4.410
  589SOL    HW2 2100   0.254   0.311   4.542
  590SOL     OW 2101   1.194   1.612   3.755
  590SOL    HW1 2102   1.200   1.519   3.792
  590SOL    HW2 2103   1.135   1.612   3.675
  591SOL     OW 2104   0.822   1.002   5.096
  591SOL    HW1 2105   0.862   1.001   5.004
  591SOL    HW2 2106   0.832   1.094   5.136
  592SOL     OW 2107   0.916   0.910   4.015
  592SOL    HW1 2108   0.979   0.948   3.947
  592SOL    HW2 2109   0.956   0.827   4.054
  593SOL     OW 2110   1.504   1.607   3.768
  593SOL    HW1 2111   1.412   1.644   3.775
  593SOL    HW2 2112   1.542   1.627   3.678
  594SOL     OW 2113   0.372   1.288   5.214
  594SOL    HW1 2114   0.359   1.381   5.180
  594SOL    HW2 2115   0.288   1.236   5.201
  595SOL     OW 2116   1.614   1.292   5.013
  595SOL    HW1 2117   1.674   1.295   5.093
  595SOL    HW2 2118   1.539   1.356   5.026
  596SOL     OW 2119   1.039   1.098   4.420
  596SOL    HW1 2120   0.969   1.051   4.474
  596SOL    HW2 2121   1.098   1.030   4.377
  597SOL     OW 2122   1.014   0.236   4.695
  597SOL    HW1 2123   1.006   0.200   4.602
  597SOL    HW2 2124   1.012   0.160   4.760
  598SOL     OW 2125   0.590   1.487   4.215
  598SOL    HW1 2126   0.632   1.429   4.145
  598SOL    HW2 2127   0.546   1.566   4.171
  599SOL     OW 2128   1.709   0.385   5.105
  599SOL    HW1 2129   1.782   0.454   5.109
  599SOL    HW2 2130   1.737   0.310   5.046
  600SOL     OW 2131   0.255   1.348   4.014
  600SOL    HW1 2132   0.159   1.349   3.987
  600SOL    HW2 2133   0.267   1.401   4.098
  601SOL     OW 2134   0.105   1.013   5.450
  601SOL    HW1 2135   0.028   0.980   5.504
  601SOL    HW2 2136   0.190   0.983   5.492
  602SOL     OW 2137   0.672   0.203   5.213
  602SOL    HW1 2138   0.762   0.187   5.173
  602SOL    HW2 2139   0.680   0.208   5.312
  603SOL     OW 2140   0.075   0.345   3.757
  603SOL    HW1 2141  -0.017   0.317   3.728
  603SOL    HW2 2142   0.106   0.422   3.701
  604SOL     OW 2143   1.440   0.856   5.122
  604SOL    HW1 2144   1.383   0.908   5.059
  604SOL    HW2 2145   1.536   0.868   5.098
  605SOL     OW 2146   0.072   0.166   4.042
  605SOL    HW1 2147   0.055   0.249   3.988
  605SOL    HW2 2148   0.162   0.129   4.020
  606SOL     OW 2149   1.183   1.335   3.843
  606SOL    HW1 2150   1.084   1.324   3.845
  606SOL    HW2 2151   1.217   1.350   3.936
  607SOL     OW 2152   0.613   0.842   5.155
  607SOL    HW1 2153   0.669   0.923   5.138
  607SOL    HW2 2154   0.672   0.762   5.158
  608SOL     OW 2155   1.493   1.767   4.683
  608SOL    HW1 2156   1.526   1.831   4.614
  608SOL    HW2 2157   1.559   1.761   4.758
  609SOL     OW 2158   0.716   0.565   5.432
  609SOL    HW1 2159   0.735   0.630   5.506
  609SOL    HW2 2160   0.776   0.485   5.441
  610SOL     OW 2161   1.450   1.220   5.357
  610SOL    HW1 2162   1.441   1.210   5.456
  610SOL    HW2 2163   1.546   1.213   5.331
  611SOL     OW 2164   0.390   1.741   5.284
  611SOL    HW1 2165   0.299   1.782   5.282
  611SOL    HW2 2166   0.383   1.647   5.316
  612SOL     OW 2167   1.674   0.883   4.978
  612SOL    HW1 2168   1.647   0.794   4.941
  612SOL    HW2 2169   1.675   0.951   4.905
  613SOL     OW 2170   1.225   0.325   4.173
  613SOL    HW1 2171   1.290   0.251   4.162
  613SOL    HW2 2172   1.245   0.375   4.257
  614SOL     OW 2173   0.594   0.745   4.376
  614SOL    HW1 2174   0.644   0.830   4.357
  614SOL    HW2 2175   0.506   0.747   4.328
  615SOL     OW 2176   1.777   0.342   5.366
  615SOL    HW1 2177   1.760   0.373   5.272
  615SOL    HW2 2178   1.693   0.305   5.404
  616SOL     OW 2179   1.730   0.934   5.241
  616SOL    HW1 2180   1.768   1.025   5.256
  616SOL    HW2 2181   1.722   0.917   5.142
  617SOL     OW 2182   0.859   1.374   3.740
  617SOL    HW1 2183   0.813   1.389   3.828
  617SOL    HW2 2184   0.903   1.459   3.710
  618SOL     OW 2185   0.661   1.790   4.677
  618SOL    HW1 2186   0.615   1.878   4.664
  618SOL    HW2 2187   0.760   1.802   4.670
  619SOL     OW 2188   0.859   0.956   4.585
  619SOL    HW1 2189   0.913   0.887   4.633
  619SOL    HW2 2190   0.827   1.025   4.651
  620SOL     OW 2191   1.083   0.984   3.811
  620SOL    HW1 2192   1.060   1.037   3.729
  620SOL    HW2 2193   1.164   0.928   3.792
  621SOL     OW 2194   1.861   1.569   4.575
  621SOL    HW1 2195   1.790   1.557   4.505
  621SOL    HW2 2196   1.862   1.490   4.635
  622SOL     OW 2197   0.221   1.314   5.568
  622SOL    HW1 2198   0.156   1.241   5.547
  622SOL    HW2 2199   0.225   1.328   5.666
  623SOL     OW 2200   0.079   1.240   4.377
  623SOL    HW1 2201   0.078   1.193   4.465
  623SOL    HW2 2202   0.161   1.212   4.326
  624SOL     OW 2203   0.672   1.391   5.348
  624SOL    HW1 2204   0.594   1.341   5.386
  624SOL    HW2 2205   0.669   1.486   5.379
  625SOL     OW 2206   1.824   0.192   4.951
  625SOL    HW1 2207   1.820   0.102   4.995
  625SOL    HW2 2208   1.827   0.181   4.852
  626SOL     OW 2209   0.428   0.424   4.244
  626SOL    HW1 2210   0.458   0.352   4.182
  626SOL    HW2 2211   0.389   0.384   4.327
  627SOL     OW 2212   1.705   1.487   4.828
  627SOL    HW1 2213   1.612   1.462   4.801
  627SOL    HW2 2214   1.731   1.437   4.910
  628SOL     OW 2215   0.317   0.547   5.004
  628SOL    HW1 2216   0.355   0.488   5.076
  628SOL    HW2 2217   0.357   0.521   4.916
  629SOL     OW 2218   0.812   1.586   4.411
  629SOL    HW1 2219   0.844   1.596   4.317
  629SOL    HW2 2220   0.733   1.524   4.413
  630SOL     OW 2221   1.424   0.214   4.836
  630SOL    HW1 2222   1.476   0.149   4.891
  630SOL    HW2 2223   1.375   0.277   4.897
  631SOL     OW 2224   1.001   0.034   4.878
  631SOL    HW1 2225   0.938  -0.038   4.847
  631SOL    HW2 2226   1.094  -0.002   4.878
  632SOL     OW 2227   0.770   1.330   4.025
  632SOL    HW1 2228   0.724   1.243   4.042
  632SOL    HW2 2229   0.861   1.327   4.066
  633SOL     OW 2230   0.618   1.567   5.008
  633SOL    HW1 2231   0.613   1.649   5.065
  633SOL    HW2 2232   0.707   1.564   4.963
  634SOL     OW 2233   1.352   0.052   3.892
  634SOL    HW1 2234   1.387   0.011   3.808
  634SOL    HW2 2235   1.262   0.014   3.912
  635SOL     OW 2236   1.300   0.453   4.415
  635SOL    HW1 2237   1.241   0.533   4.419
  635SOL    HW2 2238   1.315   0.418   4.508
  636SOL     OW 2239   1.593   0.221   4.606
  636SOL    HW1 2240   1.509   0.220   4.660
  636SOL    HW2 2241   1.595   0.304   4.550
  637SOL     OW 2242   0.039   1.077   4.024
  637SOL    HW1 2243   0.138   1.066   4.015
  637SOL    HW2 2244  -0.001   0.991   4.056
  638SOL     OW 2245   0.875   1.646   4.061
  638SOL    HW1 2246   0.798   1.611   4.007
  638SOL    HW2 2247   0.843   1.717   4.123
  639SOL     OW 2248   0.230   0.628   5.699
  639SOL    HW1 2249   0.137   0.626   5.736
  639SOL    HW2 2250   0.231   0.589   5.607
  640SOL     OW 2251   0.225   0.275   6.582
  640SOL    HW1 2252   0.260   0.258   6.674
  640SOL    HW2 2253   0.137   0.230   6.570
  641SOL     OW 2254   0.019   0.368   6.233
  641SOL    HW1 2255  -0.063   0.411   6.272
  641SOL    HW2 2256  -0.009   0.295   6.170
  642SOL     OW 2257   0.569   1.275   6.751
  642SOL    HW1 2258   0.476   1.268   6.714
  642SOL    HW2 2259   0.580   1.364   6.795
  643SOL     OW 2260   1.555   1.511   6.289
  643SOL    HW1 2261   1.498   1.495   6.370
  643SOL    HW2 2262   1.496   1.521   6.209
  644SOL     OW 2263   1.135   0.703   6.303
  644SOL    HW1 2264   1.192   0.781   6.278
  644SOL    HW2 2265   1.075   0.729   6.379
  645SOL     OW 2266   1.755   0.607   5.817
  645SOL    HW1 2267   1.743   0.594   5.718
  645SOL    HW2 2268   1.725   0.526   5.866
  646SOL     OW 2269   0.768   1.144   6.609
  646SOL    HW1 2270   0.690   1.161   6.669
  646SOL    HW2 2271   0.802   1.231   6.573
  647SOL     OW 2272   0.850   0.798   7.409
  647SOL    HW1 2273   0.846   0.874   7.474
  647SOL    HW2 2274   0.872   0.834   7.318
  648SOL     OW 2275   0.685   1.012   6.251
  648SOL    HW1 2276   0.754   0.996   6.321
  648SOL    HW2 2277   0.612   1.069   6.289
  649SOL     OW 2278   0.686   1.161   7.389
  649SOL    HW1 2279   0.746   1.240   7.403
  649SOL    HW2 2280   0.600   1.192   7.348
  650SOL     OW 2281   0.335   1.435   6.647
  650SOL    HW1 2282   0.257   1.404   6.594
  650SOL    HW2 2283   0.393   1.493   6.590
  651SOL     OW 2284   1.460   1.505   6.925
  651SOL    HW1 2285   1.484   1.599   6.951
  651SOL    HW2 2286   1.444   1.451   7.007
  652SOL     OW 2287   0.438   0.392   7.085
  652SOL    HW1 2288   0.520   0.336   7.094
  652SOL    HW2 2289   0.357   0.334   7.089
  653SOL     OW 2290   1.603   0.447   6.323
  653SOL    HW1 2291   1.529   0.493   6.273
  653SOL    HW2 2292   1.654   0.515   6.376
  654SOL     OW 2293   0.231   1.713   6.069
  654SOL    HW1 2294   0.265   1.790   6.123
  654SOL    HW2 2295   0.275   1.713   5.979
  655SOL     OW 2296   1.127   1.341   7.276
  655SOL    HW1 2297   1.174   1.341   7.364
  655SOL    HW2 2298   1.079   1.254   7.265
  656SOL     OW 2299   0.230   1.434   6.124
  656SOL    HW1 2300   0.204   1.530   6.124
  656SOL    HW2 2301   0.159   1.380   6.169
  657SOL     OW 2302   0.240   1.091   6.472
  657SOL    HW1 2303   0.254   1.007   6.524
  657SOL    HW2 2304   0.185   1.155   6.527
  658SOL     OW 2305   0.620   1.786   7.025
  658SOL    HW1 2306   0.528   1.769   7.060
  658SOL    HW2 2307   0.648   1.878   7.051
  659SOL     OW 2308   0.606   0.964   5.709
  659SOL    HW1 2309   0.613   1.048   5.655
  659SOL    HW2 2310   0.652   0.977   5.797
  660SOL     OW 2311   1.594   0.114   7.066
  660SOL    HW1 2312   1.576   0.181   6.994
  660SOL    HW2 2313   1.591   0.160   7.155
  661SOL     OW 2314   0.122   0.643   6.149
  661SOL    HW1 2315   0.077   0.555   6.166
  661SOL    HW2 2316   0.121   0.697   6.233
  662SOL     OW 2317   1.842   1.767   5.945
  662SOL    HW1 2318   1.896   1.738   6.025
  662SOL    HW2 2319   1.872   1.857   5.916
  663SOL     OW 2320   0.027   1.596   5.703
  663SOL    HW1 2321   0.008   1.500   5.724
  663SOL    HW2 2322  -0.006   1.654   5.778
  664SOL     OW 2323   1.689   0.922   6.198
  664SOL    HW1 2324   1.784   0.893   6.206
  664SOL    HW2 2325   1.681   0.987   6.123
  665SOL     OW 2326   1.641   1.108   6.018
  665SOL    HW1 2327   1.727   1.110   5.966
  665SOL    HW2 2328   1.655   1.155   6.106
  666SOL     OW 2329   0.113   0.737   7.183
  666SOL    HW1 2330   0.201   0.724   7.228
  666SOL    HW2 2331   0.100   0.834   7.161
  667SOL     OW 2332   0.613   1.365   6.312
  667SOL    HW1 2333   0.564   1.278   6.321
  667SOL    HW2 2334   0.590   1.408   6.225
  668SOL     OW 2335   1.293   1.228   7.009
  668SOL    HW1 2336   1.330   1.155   6.951
  668SOL    HW2 2337   1.345   1.233   7.094
  669SOL     OW 2338   0.809   0.004   6.088
  669SOL    HW1 2339   0.849   0.095   6.079
  669SOL    HW2 2340   0.709   0.012   6.094
  670SOL     OW 2341   0.197   0.976   6.850
  670SOL    HW1 2342   0.286   0.931   6.836
  670SOL    HW2 2343   0.124   0.911   6.831
  671SOL     OW 2344   1.525   0.999   5.776
  671SOL    HW1 2345   1.462   0.923   5.789
  671SOL    HW2 2346   1.573   1.017   5.862
  672SOL     OW 2347   1.187   1.792   7.202
  672SOL    HW1 2348   1.211   1.852   7.126
  672SOL    HW2 2349   1.194   1.697   7.172
  673SOL     OW 2350   0.317   0.251   7.387
  673SOL    HW1 2351   0.388   0.322   7.393
  673SOL    HW2 2352   0.229   0.290   7.415
  674SOL     OW 2353   1.466   1.417   6.539
  674SOL    HW1 2354   1.407   1.423   6.619
  674SOL    HW2 2355   1.451   1.329   6.493
  675SOL     OW 2356   1.667   1.714   6.158
  675SOL    HW1 2357   1.626   1.691   6.070
  675SOL    HW2 2358   1.649   1.640   6.223
  676SOL     OW 2359   0.598   0.729   5.856
  676SOL    HW1 2360   0.622   0.798   5.788
  676SOL    HW2 2361   0.520   0.762   5.910
  677SOL     OW 2362   1.281   0.345   6.530
  677SOL    HW1 2363   1.195   0.295   6.517
  677SOL    HW2 2364   1.343   0.291   6.586
  678SOL     OW 2365   1.576   1.662   5.893
  678SOL    HW1 2366   1.665   1.708   5.896
  678SOL    HW2 2367   1.555   1.638   5.798
  679SOL     OW 2368   0.807   0.605   7.051
  679SOL    HW1 2369   0.760   0.602   7.140
  679SOL    HW2 2370   0.756   0.550   6.985
  680SOL     OW 2371   1.394   0.469   7.260
  680SOL    HW1 2372   1.374   0.512   7.348
  680SOL    HW2 2373   1.472   0.407   7.269
  681SOL     OW 2374   0.973   0.890   7.158
  681SOL    HW1 2375   1.019   0.806   7.129
  681SOL    HW2 2376   0.917   0.924   7.083
  682SOL     OW 2377   0.991   0.410   6.828
  682SOL    HW1 2378   0.914   0.444   6.882
  682SOL    HW2 2379   0.957   0.359   6.749
  683SOL     OW 2380   1.041   0.701   6.015
  683SOL    HW1 2381   1.067   0.697   6.111
  683SOL    HW2 2382   0.956   0.650   6.001
  684SOL     OW 2383   0.076   0.811   6.375
  684SOL    HW1 2384   0.175   0.799   6.384
  684SOL    HW2 2385   0.052   0.906   6.396
  685SOL     OW 2386   0.130   1.821   7.157
  685SOL    HW1 2387   0.120   1.806   7.256
  685SOL    HW2 2388   0.044   1.857   7.121
  686SOL     OW 2389   0.865   0.348   5.781
  686SOL    HW1 2390   0.924   0.411   5.732
  686SOL    HW2 2391   0.884   0.254   5.752
  687SOL     OW 2392   1.719   0.585   7.417
  687SOL    HW1 2393   1.693   0.674   7.381
  687SOL    HW2 2394   1.717   0.517   7.344
  688SOL     OW 2395   1.362   1.144   6.131
  688SOL    HW1 2396   1.445   1.115   6.083
  688SOL    HW2 2397   1.313   1.211   6.075
  689SOL     OW 2398   0.550   0.196   6.471
  689SOL    HW1 2399   0.545   0.191   6.571
  689SOL    HW2 2400   0.552   0.292   6.442
  690SOL     OW 2401   1.008   1.456   6.063
  690SOL    HW1 2402   0.962   1.528   6.011
  690SOL    HW2 2403   1.004   1.476   6.161
  691SOL     OW 2404   0.351   1.801   6.439
  691SOL    HW1 2405   0.401   1.715   6.445
  691SOL    HW2 2406   0.416   1.878   6.436
  692SOL     OW 2407   1.795   1.066   6.459
  692SOL    HW1 2408   1.733   1.051   6.383
  692SOL    HW2 2409   1.743   1.077   6.544
  693SOL     OW 2410   1.227   1.550   7.092
  693SOL    HW1 2411   1.233   1.473   7.156
  693SOL    HW2 2412   1.175   1.524   7.012
  694SOL     OW 2413   0.321   0.943   5.828
  694SOL    HW1 2414   0.403   0.982   5.786
  694SOL    HW2 2415   0.294   0.861   5.779
  695SOL     OW 2416   1.458   0.735   6.314
  695SOL    HW1 2417   1.453   0.670   6.389
  695SOL    HW2 2418   1.538   0.794   6.327
  696SOL     OW 2419   0.461   1.266   7.313
  696SOL    HW1 2420   0.411   1.267   7.227
  696SOL    HW2 2421   0.398   1.248   7.389
  697SOL     OW 2422   1.111   1.776   5.823
  697SOL    HW1 2423   1.051   1.714   5.873
  697SOL    HW2 2424   1.142   1.732   5.738
  698SOL     OW 2425   0.202   0.285   7.084
  698SOL    HW1 2426   0.122   0.345   7.071
  698SOL    HW2 2427   0.192   0.236   7.170
  699SOL     OW 2428   1.632   1.377   5.667
  699SOL    HW1 2429   1.600   1.471   5.657
  699SOL    HW2 2430   1.556   1.314   5.655
  700SOL     OW 2431   0.464   1.743   5.909
  700SOL    HW1 2432   0.497   1.782   5.995
  700SOL    HW2 2433   0.540   1.736   5.844
  701SOL     OW 2434   1.400   0.107   6.012
  701SOL    HW1 2435   1.376   0.070   5.922
  701SOL    HW2 2436   1.499   0.123   6.016
  702SOL     OW 2437   0.249   1.785   6.827
  702SOL    HW1 2438   0.306   1.720   6.877
  702SOL    HW2 2439   0.233   1.752   6.734
  703SOL     OW 2440   0.940   1.698   6.490
  703SOL    HW1 2441   1.020   1.641   6.511
  703SOL    HW2 2442   0.891   1.658   6.413
  704SOL     OW 2443   0.382   0.700   6.066
  704SOL    HW1 2444   0.427   0.610   6.063
  704SOL    HW2 2445   0.288   0.689   6.099
  705SOL     OW 2446   1.547   0.222   7.315
  705SOL    HW1 2447   1.542   0.259   7.407
  705SOL    HW2 2448   1.475   0.153   7.303
  706SOL     OW 2449   0.614   0.122   5.703
  706SOL    HW1 2450   0.712   0.100   5.710
  706SOL    HW2 2451   0.583   0.105   5.610
  707SOL     OW 2452   0.781   0.264   7.335
  707SOL    HW1 2453   0.848   0.203   7.378
  707SOL    HW2 2454   0.708   0.283   7.400
  708SOL     OW 2455   0.888   1.514   6.781
  708SOL    HW1 2456   0.865   1.489   6.687
  708SOL    HW2 2457   0.949   1.445   6.820
  709SOL     OW 2458   1.351   0.590   7.019
  709SOL    HW1 2459   1.379   0.547   7.104
  709SOL    HW2 2460   1.376   0.686   7.020
  710SOL     OW 2461   0.803   1.402   6.510
  710SOL    HW1 2462   0.893   1.416   6.468
  710SOL    HW2 2463   0.732   1.404   6.439
  711SOL     OW 2464   0.922   0.503   6.485
  711SOL    HW1 2465   0.897   0.494   6.389
  711SOL    HW2 2466   0.970   0.421   6.516
  712SOL     OW 2467   0.539   0.064   6.098
  712SOL    HW1 2468   0.458   0.065   6.156
  712SOL    HW2 2469   0.542   0.147   6.043
  713SOL     OW 2470   1.434   1.188   5.627
  713SOL    HW1 2471   1.466   1.112   5.684
  713SOL    HW2 2472   1.342   1.215   5.657
  714SOL     OW 2473   0.297   0.035   5.757
  714SOL    HW1 2474   0.346   0.119   5.736
  714SOL    HW2 2475   0.359  -0.030   5.802
  715SOL     OW 2476   0.935   0.236   6.066
  715SOL    HW1 2477   0.887   0.277   5.988
  715SOL    HW2 2478   1.034   0.234   6.047
  716SOL     OW 2479   1.076   0.683   7.050
  716SOL    HW1 2480   0.996   0.622   7.053
  716SOL    HW2 2481   1.157   0.630   7.026
  717SOL     OW 2482   1.227   1.570   6.379
  717SOL    HW1 2483   1.248   1.644   6.314
  717SOL    HW2 2484   1.295   1.570   6.452
  718SOL     OW 2485   0.459   1.152   6.327
  718SOL    HW1 2486   0.388   1.125   6.392
  718SOL    HW2 2487   0.433   1.124   6.234
  719SOL     OW 2488   1.271   1.797   6.177
  719SOL    HW1 2489   1.315   1.861   6.113
  719SOL    HW2 2490   1.221   1.849   6.247
  720SOL     OW 2491   1.032   0.549   5.602
  720SOL    HW1 2492   0.991   0.631   5.563
  720SOL    HW2 2493   1.096   0.575   5.675
  721SOL     OW 2494   0.078   0.556   6.972
  721SOL    HW1 2495   0.170   0.555   6.931
  721SOL    HW2 2496   0.072   0.630   7.039
  722SOL     OW 2497   0.561   0.222   6.733
  722SOL    HW1 2498   0.599   0.138   6.770
  722SOL    HW2 2499   0.473   0.241   6.777
  723SOL     OW 2500   0.866   0.454   6.228
  723SOL    HW1 2501   0.834   0.526   6.166
  723SOL    HW2 2502   0.890   0.373   6.175
  724SOL     OW 2503   1.017   0.039   6.339
  724SOL    HW1 2504   0.945   0.044   6.270
  724SOL    HW2 2505   0.993  -0.030   6.408
  725SOL     OW 2506   1.429   1.173   6.453
  725SOL    HW1 2507   1.374   1.089   6.446
  725SOL    HW2 2508   1.455   1.202   6.361
  726SOL     OW 2509   1.466   0.590   6.578
  726SOL    HW1 2510   1.436   0.495   6.585
  726SOL    HW2 2511   1.539   0.606   6.644
  727SOL     OW 2512   1.857   0.833   5.963
  727SOL    HW1 2513   1.899   0.769   6.027
  727SOL    HW2 2514   1.819   0.782   5.885
  728SOL     OW 2515   0.488   1.385   5.760
  728SOL    HW1 2516   0.401   1.370   5.807
  728SOL    HW2 2517   0.471   1.411   5.665
  729SOL     OW 2518   1.664   1.280   6.243
  729SOL    HW1 2519   1.763   1.288   6.257
  729SOL    HW2 2520   1.619   1.364   6.274
  730SOL     OW 2521   1.390   0.575   5.664
  730SOL    HW1 2522   1.336   0.554   5.745
  730SOL    HW2 2523   1.481   0.534   5.673
  731SOL     OW 2524   0.527   0.256   5.914
  731SOL    HW1 2525   0.554   0.197   5.839
  731SOL    HW2 2526   0.527   0.351   5.883
  732SOL     OW 2527   1.754   1.223   7.174
  732SOL    HW1 2528   1.845   1.184   7.161
  732SOL    HW2 2529   1.762   1.319   7.198
  733SOL     OW 2530   1.064   1.347   6.926
  733SOL    HW1 2531   0.984   1.324   6.981
  733SOL    HW2 2532   1.147   1.321   6.975
  734SOL     OW 2533   1.592   1.629   7.211
  734SOL    HW1 2534   1.619   1.663   7.121
  734SOL    HW2 2535   1.671   1.591   7.257
  735SOL     OW 2536   1.111   1.195   6.686
  735SOL    HW1 2537   1.071   1.239   6.767
  735SOL    HW2 2538   1.070   1.232   6.603
  736SOL     OW 2539   1.638   1.099   6.665
  736SOL    HW1 2540   1.643   1.180   6.724
  736SOL    HW2 2541   1.552   1.101   6.614
  737SOL     OW 2542   0.915   0.089   6.988
  737SOL    HW1 2543   0.940   0.069   6.893
  737SOL    HW2 2544   0.987   0.145   7.030
  738SOL     OW 2545   0.980   1.116   7.305
  738SOL    HW1 2546   0.881   1.122   7.315
  738SOL    HW2 2547   1.003   1.036   7.249
  739SOL     OW 2548   0.705   1.050   5.954
  739SOL    HW1 2549   0.691   1.057   6.053
  739SOL    HW2 2550   0.789   0.999   5.936
  740SOL     OW 2551   0.410   0.813   6.837
  740SOL    HW1 2552   0.496   0.825   6.887
  740SOL    HW2 2553   0.368   0.726   6.864
  741SOL     OW 2554   1.274   0.386   6.848
  741SOL    HW1 2555   1.295   0.460   6.912
  741SOL    HW2 2556   1.185   0.403   6.805
  742SOL     OW 2557   0.064   1.564   6.917
  742SOL    HW1 2558   0.018   1.646   6.883
  742SOL    HW2 2559   0.162   1.583   6.926
  743SOL     OW 2560   0.367   1.100   6.087
  743SOL    HW1 2561   0.360   1.183   6.031
  743SOL    HW2 2562   0.371   1.020   6.027
  744SOL     OW 2563   0.566   0.537   6.451
  744SOL    HW1 2564   0.578   0.603   6.377
  744SOL    HW2 2565   0.612   0.571   6.534
  745SOL     OW 2566   1.252   1.348   5.974
  745SOL    HW1 2567   1.302   1.425   6.014
  745SOL    HW2 2568   1.157   1.350   6.006
  746SOL     OW 2569   1.272   1.445   6.728
  746SOL    HW1 2570   1.319   1.458   6.815
  746SOL    HW2 2571   1.206   1.371   6.737
  747SOL     OW 2572   1.582   0.639   6.058
  747SOL    HW1 2573   1.551   0.700   6.131
  747SOL    HW2 2574   1.632   0.691   5.989
  748SOL     OW 2575   0.354   1.510   6.915
  748SOL    HW1 2576   0.333   1.466   6.828
  748SOL    HW2 2577   0.451   1.536   6.918
  749SOL     OW 2578   0.402   0.751   7.184
  749SOL    HW1 2579   0.470   0.806   7.137
  749SOL    HW2 2580   0.442   0.663   7.211
  750SOL     OW 2581   1.587   0.779   7.256
  750SOL    HW1 2582   1.495   0.817   7.251
  750SOL    HW2 2583   1.647   0.826   7.191
  751SOL     OW 2584   1.013   0.105   7.356
  751SOL    HW1 2585   1.019   0.190   7.304
  751SOL    HW2 2586   1.045   0.029   7.299
  752SOL     OW 2587   0.504   0.050   7.326
  752SOL    HW1 2588   0.462  -0.007   7.256
  752SOL    HW2 2589   0.438   0.119   7.358
  753SOL     OW 2590   0.573   0.870   6.615
  753SOL    HW1 2591   0.617   0.959   6.606
  753SOL    HW2 2592   0.510   0.870   6.692
  754SOL     OW 2593   1.360   0.862   6.631
  754SOL    HW1 2594   1.285   0.862   6.565
  754SOL    HW2 2595   1.397   0.770   6.640
  755SOL     OW 2596   1.209   0.525   5.861
  755SOL    HW1 2597   1.222   0.441   5.915
  755SOL    HW2 2598   1.180   0.599   5.921
  756SOL     OW 2599   0.307   0.213   6.817
  756SOL    HW1 2600   0.284   0.250   6.907
  756SOL    HW2 2601   0.277   0.118   6.811
  757SOL     OW 2602   0.037   1.310   6.868
  757SOL    HW1 2603   0.090   1.261   6.936
  757SOL    HW2 2604   0.059   1.408   6.873
  758SOL     OW 2605   0.732   0.634   6.650
  758SOL    HW1 2606   0.791   0.608   6.574
  758SOL    HW2 2607   0.704   0.730   6.639
  759SOL     OW 2608   1.728   0.935   7.440
  759SOL    HW1 2609   1.682   0.928   7.351
  759SOL    HW2 2610   1.666   0.979   7.506
  760SOL     OW 2611   0.307   0.063   6.204
  760SOL    HW1 2612   0.296   0.157   6.237
  760SOL    HW2 2613   0.302   0.000   6.281
  761SOL     OW 2614   1.622   0.367   5.960
  761SOL    HW1 2615   1.624   0.291   6.024
  761SOL    HW2 2616   1.574   0.444   6.000
  762SOL     OW 2617   1.023   0.766   6.552
  762SOL    HW1 2618   1.038   0.787   6.648
  762SOL    HW2 2619   0.993   0.671   6.543
  763SOL     OW 2620   0.980   1.573   7.286
  763SOL    HW1 2621   0.960   1.617   7.198
  763SOL    HW2 2622   1.019   1.482   7.270
  764SOL     OW 2623   1.859   1.518   7.191
  764SOL    HW1 2624   1.873   1.545   7.096
  764SOL    HW2 2625   1.942   1.540   7.244
  765SOL     OW 2626   0.350   0.898   7.390
  765SOL    HW1 2627   0.426   0.942   7.438
  765SOL    HW2 2628   0.385   0.851   7.308
  766SOL     OW 2629   1.540   0.274   5.711
  766SOL    HW1 2630   1.479   0.199   5.734
  766SOL    HW2 2631   1.562   0.326   5.794
  767SOL     OW 2632   1.303   0.838   5.628
  767SOL    HW1 2633   1.337   0.745   5.643
  767SOL    HW2 2634   1.321   0.865   5.533
  768SOL     OW 2635   1.068   1.333   6.435
  768SOL    HW1 2636   1.075   1.249   6.380
  768SOL    HW2 2637   1.130   1.402   6.399
  769SOL     OW 2638   0.319   0.810   6.535
  769SOL    HW1 2639   0.412   0.846   6.540
  769SOL    HW2 2640   0.313   0.725   6.587
  770SOL     OW 2641   0.339   0.509   6.592
  770SOL    HW1 2642   0.287   0.426   6.575
  770SOL    HW2 2643   0.416   0.514   6.528
  771SOL     OW 2644   1.138   0.380   7.264
  771SOL    HW1 2645   1.093   0.443   7.328
  771SOL    HW2 2646   1.231   0.411   7.247
  772SOL     OW 2647   1.160   0.207   7.063
  772SOL    HW1 2648   1.160   0.271   7.140
  772SOL    HW2 2649   1.188   0.255   6.980
  773SOL     OW 2650   0.008   1.326   5.786
  773SOL    HW1 2651  -0.085   1.347   5.755
  773SOL    HW2 2652   0.018   1.227   5.799
  774SOL     OW 2653   0.088   1.801   6.513
  774SOL    HW1 2654   0.046   1.715   6.486
  774SOL    HW2 2655   0.182   1.804   6.479
  775SOL     OW 2656   0.504   1.568   6.496
  775SOL    HW1 2657   0.570   1.642   6.505
  775SOL    HW2 2658   0.548   1.489   6.454
  776SOL     OW 2659   1.002   0.796   6.824
  776SOL    HW1 2660   1.043   0.764   6.910
  776SOL    HW2 2661   0.906   0.769   6.821
  777SOL     OW 2662   0.040   0.544   6.700
  777SOL    HW1 2663   0.125   0.511   6.659
  777SOL    HW2 2664   0.053   0.559   6.798
  778SOL     OW 2665   0.189   0.520   7.308
  778SOL    HW1 2666   0.248   0.480   7.238
  778SOL    HW2 2667   0.131   0.591   7.267
  779SOL     OW 2668   1.369   0.950   7.246
  779SOL    HW1 2669   1.408   1.039   7.266
  779SOL    HW2 2670   1.379   0.930   7.149
  780SOL     OW 2671   0.815   0.572   5.911
  780SOL    HW1 2672   0.822   0.483   5.865
  780SOL    HW2 2673   0.721   0.606   5.903
  781SOL     OW 2674   1.657   0.604   6.792
  781SOL    HW1 2675   1.619   0.535   6.854
  781SOL    HW2 2676   1.739   0.568   6.748
  782SOL     OW 2677   0.252   1.564   7.330
  782SOL    HW1 2678   0.222   1.621   7.406
  782SOL    HW2 2679   0.245   1.467   7.356
  783SOL     OW 2680   0.671   0.464   6.855
  783SOL    HW1 2681   0.637   0.375   6.825
  783SOL    HW2 2682   0.697   0.518   6.775
  784SOL     OW 2683   0.930   1.678   7.051
  784SOL    HW1 2684   0.906   1.660   6.956
  784SOL    HW2 2685   0.960   1.772   7.061
  785SOL     OW 2686   0.473   0.500   5.777
  785SOL    HW1 2687   0.534   0.580   5.781
  785SOL    HW2 2688   0.378   0.531   5.784
  786SOL     OW 2689   0.159   1.137   7.052
  786SOL    HW1 2690   0.181   1.076   7.128
  786SOL    HW2 2691   0.169   1.088   6.966
  787SOL     OW 2692   1.347   1.059   6.820
  787SOL    HW1 2693   1.371   0.996   6.746
  787SOL    HW2 2694   1.257   1.099   6.802
  788SOL     OW 2695   1.302   0.855   5.895
  788SOL    HW1 2696   1.216   0.824   5.937
  788SOL    HW2 2697   1.298   0.841   5.796
  789SOL     OW 2698   1.759   1.747   6.740
  789SOL    HW1 2699   1.820   1.777   6.667
  789SOL    HW2 2700   1.721   1.658   6.718
  790SOL     OW 2701   1.252   1.731   6.714
  790SOL    HW1 2702   1.336   1.736   6.660
  790SOL    HW2 2703   1.229   1.635   6.732
  791SOL     OW 2704   0.083   1.258   6.608
  791SOL    HW1 2705   0.078   1.257   6.708
  791SOL    HW2 2706   0.000   1.217   6.570
  792SOL     OW 2707   0.688   1.662   7.302
  792SOL    HW1 2708   0.632   1.743   7.311
  792SOL    HW2 2709   0.740   1.666   7.216
  793SOL     OW 2710   1.726   0.135   6.109
  793SOL    HW1 2711   1.799   0.118   6.042
  793SOL    HW2 2712   1.695   0.048   6.147
  794SOL     OW 2713   1.388   1.573   6.063
  794SOL    HW1 2714   1.455   1.585   5.989
  794SOL    HW2 2715   1.348   1.662   6.086
  795SOL     OW 2716   0.130   1.794   7.437
  795SOL    HW1 2717   0.089   1.720   7.490
  795SOL    HW2 2718   0.194   1.845   7.495
  796SOL     OW 2719   1.280   0.927   6.258
  796SOL    HW1 2720   1.340   0.846   6.260
  796SOL    HW2 2721   1.320   0.996   6.198
  797SOL     OW 2722   0.830   1.273   7.008
  797SOL    HW1 2723   0.825   1.306   7.103
  797SOL    HW2 2724   0.744   1.292   6.962
  798SOL     OW 2725   0.672   1.616   5.740
  798SOL    HW1 2726   0.681   1.626   5.641
  798SOL    HW2 2727   0.632   1.527   5.761
  799SOL     OW 2728   1.650   1.720   6.980
  799SOL    HW1 2729   1.703   1.730   6.896
  799SOL    HW2 2730   1.623   1.810   7.014
  800SOL     OW 2731   1.841   0.175   6.549
  800SOL    HW1 2732   1.880   0.090   6.513
  800SOL    HW2 2733   1.743   0.177   6.530
  801SOL     OW 2734   0.263   0.326   6.306
  801SOL    HW1 2735   0.184   0.377   6.272
  801SOL    HW2 2736   0.254   0.311   6.404
  802SOL     OW 2737   1.194   1.612   5.617
  802SOL    HW1 2738   1.200   1.519   5.654
  802SOL    HW2 2739   1.135   1.612   5.537
  803SOL     OW 2740   0.822   1.002   6.958
  803SOL    HW1 2741   0.862   1.001   6.866
  803SOL    HW2 2742   0.832   1.094   6.998
  804SOL     OW 2743   0.916   0.910   5.877
  804SOL    HW1 2744   0.979   0.948   5.809
  804SOL    HW2 2745   0.956   0.827   5.916
  805SOL     OW 2746   1.504   1.607   5.630
  805SOL    HW1 2747   1.412   1.644   5.637
  805SOL    HW2 2748   1.542   1.627   5.540
  806SOL     OW 2749   0.372   1.288   7.076
  806SOL    HW1 2750   0.359   1.381   7.042
  806SOL    HW2 2751   0.288   1.236   7.063
  807SOL     OW 2752   1.614   1.292   6.875
  807SOL    HW1 2753   1.674   1.295   6.955
  807SOL    HW2 2754   1.539   1.356   6.888
  808SOL     OW 2755   1.039   1.098   6.282
  808SOL    HW1 2756   0.969   1.051   6.336
  808SOL    HW2 2757   1.098   1.030   6.239
  809SOL     OW 2758   1.014   0.236   6.557
  809SOL    HW1 2759   1.006   0.200   6.464
  809SOL    HW2 2760   1.012   0.160   6.622
  810SOL     OW 2761   0.590   1.487   6.077
  810SOL    HW1 2762   0.632   1.429   6.007
  810SOL    HW2 2763   0.546   1.566   6.033
  811SOL     OW 2764   1.709   0.385   6.967
  811SOL    HW1 2765   1.782   0.454   6.971
  811SOL    HW2 2766   1.737   0.310   6.908
  812SOL     OW 2767   0.255   1.348   5.876
  812SOL    HW1 2768   0.159   1.349   5.849
  812SOL    HW2 2769   0.267   1.401   5.960
  813SOL     OW 2770   0.105   1.013   7.312
  813SOL    HW1 2771   0.028   0.980   7.366
  813SOL    HW2 2772   0.190   0.983   7.354
  814SOL     OW 2773   0.672   0.203   7.075
  814SOL    HW1 2774   0.762   0.187   7.035
  814SOL    HW2 2775   0.680   0.208   7.174
  815SOL     OW 2776   0.075   0.345   5.619
  815SOL    HW1 2777  -0.017   0.317   5.590
  815SOL    HW2 2778   0.106   0.422   5.563
  816SOL     OW 2779   1.440   0.856   6.984
  816SOL    HW1 2780   1.383   0.908   6.921
  816SOL    HW2 2781   1.536   0.868   6.960
  817SOL     OW 2782   0.072   0.166   5.904
  817SOL    HW1 2783   0.055   0.249   5.850
  817SOL    HW2 2784   0.162   0.129   5.882
  818SOL     OW 2785   1.183   1.335   5.705
  818SOL    HW1 2786   1.084   1.324   5.707
  818SOL    HW2 2787   1.217   1.350   5.798
  819SOL     OW 2788   0.613   0.842   7.017
  819SOL    HW1 2789   0.669   0.923   7.000
  819SOL    HW2 2790   0.672   0.762   7.020
  820SOL     OW 2791   1.493   1.767   6.545
  820SOL    HW1 2792   1.526   1.831   6.476
  820SOL    HW2 2793   1.559   1.761   6.620
  821SOL     OW 2794   0.716   0.565   7.294
  821SOL    HW1 2795   0.735   0.630   7.368
  821SOL    HW2 2796   0.776   0.485   7.303
  822SOL     OW 2797   1.450   1.220   7.219
  822SOL    HW1 2798   1.441   1.210   7.318
  822SOL    HW2 2799   1.546   1.213   7.193
  823SOL     OW 2800   0.390   1.741   7.146
  823SOL    HW1 2801   0.299   1.782   7.144
  823SOL    HW2 2802   0.383   1.647   7.178
  824SOL     OW 2803   1.674   0.883   6.840
  824SOL    HW1 2804   1.647   0.794   6.803
  824SOL    HW2 2805   1.675   0.951   6.767
  825SOL     OW 2806   1.225   0.325   6.035
  825SOL    HW1 2807   1.290   0.251   6.024
  825SOL    HW2 2808   1.245   0.375   6.119
  826SOL     OW 2809   0.594   0.745   6.238
  826SOL    HW1 2810   0.644   0.830   6.219
  826SOL    HW2 2811   0.506   0.747   6.190
  827SOL     OW 2812   1.777   0.342   7.228
  827SOL    HW1 2813   1.760   0.373   7.134
  827SOL    HW2 2814   1.693   0.305   7.266
  828SOL     OW 2815   1.730   0.934   7.103
  828SOL    HW1 2816   1.768   1.025   7.118
  828SOL    HW2 2817   1.722   0.917   7.004
  829SOL     OW 2818   0.859   1.374   5.602
  829SOL    HW1 2819   0.813   1.389   5.690
  829SOL    HW2 2820   0.903   1.459   5.572
  830SOL     OW 2821   0.661   1.790   6.539
  830SOL    HW1 2822   0.615   1.878   6.526
  830SOL    HW2 2823   0.760   1.802   6.532
  831SOL     OW 2824   0.859   0.956   6.447
  831SOL    HW1 2825   0.913   0.887   6.495
  831SOL    HW2 2826   0.827   1.025   6.513
  832SOL     OW 2827   1.083   0.984   5.673
  832SOL    HW1 2828   1.060   1.037   5.591
  832SOL    HW2 2829   1.164   0.928   5.654
  833SOL     OW 2830   1.861   1.569   6.437
  833SOL    HW1 2831   1.790   1.557   6.367
  833SOL    HW2 2832   1.862   1.490   6.497
  834SOL     OW 2833   0.221   1.314   7.430
  834SOL    HW1 2834   0.156   1.241   7.409
  834SOL    HW2 2835   0.225   1.328   7.528
  835SOL     OW 2836   0.079   1.240   6.239
  835SOL    HW1 2837   0.078   1.193   6.327
  835SOL    HW2 2838   0.161   1.212   6.188
  836SOL     OW 2839   0.672   1.391   7.210
  836SOL    HW1 2840   0.594   1.341   7.248
  836SOL    HW2 2841   0.669   1.486   7.241
  837SOL     OW 2842   1.824   0.192   6.813
  837SOL    HW1 2843   1.820   0.102   6.857
  837SOL    HW2 2844   1.827   0.181   6.714
  838SOL     OW 2845   0.428   0.424   6.106
  838SOL    HW1 2846   0.458   0.352   6.044
  838SOL    HW2 2847   0.389   0.384   6.189
  839SOL     OW 2848   1.705   1.487   6.690
  839SOL    HW1 2849   1.612   1.462   6.663
  839SOL    HW2 2850   1.731   1.437   6.772
  840SOL     OW 2851   0.317   0.547   6.866
  840SOL    HW1 2852   0.355   0.488   6.938
  840SOL    HW2 2853   0.357   0.521   6.778
  841SOL     OW 2854   0.812   1.586   6.273
  841SOL    HW1 2855   0.844   1.596   6.179
  841SOL    HW2 2856   0.733   1.524   6.275
  842SOL     OW 2857   1.424   0.214   6.698
  842SOL    HW1 2858   1.476   0.149   6.753
  842SOL    HW2 2859   1.375   0.277   6.759
  843SOL     OW 2860   1.001   0.034   6.740
  843SOL    HW1 2861   0.938  -0.038   6.709
  843SOL    HW2 2862   1.094  -0.002   6.740
  844SOL     OW 2863   0.770   1.330   5.887
  844SOL    HW1 2864   0.724   1.243   5.904
  844SOL    HW2 2865   0.861   1.327   5.928
  845SOL     OW 2866   0.618   1.567   6.870
  845SOL    HW1 2867   0.613   1.649   6.927
  845SOL    HW2 2868   0.707   1.564   6.825
  846SOL     OW 2869   1.352   0.052   5.754
  846SOL    HW1 2870   1.387   0.011   5.670
  846SOL    HW2 2871   1.262   0.014   5.774
  847SOL     OW 2872   1.300   0.453   6.277
  847SOL    HW1 2873   1.241   0.533   6.281
  847SOL    HW2 2874   1.315   0.418   6.370
  848SOL     OW 2875   1.593   0.221   6.468
  848SOL    HW1 2876   1.509   0.220   6.522
  848SOL    HW2 2877   1.595   0.304   6.412
  849SOL     OW 2878   0.039   1.077   5.886
  849SOL    HW1 2879   0.138   1.066   5.877
  849SOL    HW2 2880  -0.001   0.991   5.918
  850SOL     OW 2881   0.875   1.646   5.923
  850SOL    HW1 2882   0.798   1.611   5.869
  850SOL    HW2 2883   0.843   1.717   5.985
  851SOL     OW 2884   0.230   0.628   7.561
  851SOL    HW1 2885   0.137   0.626   7.598
  851SOL    HW2 2886   0.231   0.589   7.469
  852SOL     OW 2887   1.755   0.607   7.679
  852SOL    HW1 2888   1.743   0.594   7.580
  852SOL    HW2 2889   1.725   0.526   7.728
  853SOL     OW 2890   0.231   1.713   7.931
  853SOL    HW1 2891   0.265   1.790   7.985
  853SOL    HW2 2892   0.275   1.713   7.841
  854SOL     OW 2893   0.230   1.434   7.986
  854SOL    HW1 2894   0.204   1.530   7.986
  854SOL    HW2 2895   0.159   1.380   8.031
  855SOL     OW 2896   0.606   0.964   7.571
  855SOL    HW1 2897   0.613   1.048   7.517
  855SOL    HW2 2898   0.652   0.977   7.659
  856SOL     OW 2899   1.842   1.767   7.807
  856SOL    HW1 2900   1.896   1.738   7.887
  856SOL    HW2 2901   1.872   1.857   7.778
  857SOL     OW 2902   0.027   1.596   7.565
  857SOL    HW1 2903   0.008   1.500   7.586
  857SOL    HW2 2904  -0.006   1.654   7.640
  858SOL     OW 2905   1.689   0.922   8.060
  858SOL    HW1 2906   1.784   0.893   8.068
  858SOL    HW2 2907   1.681   0.987   7.985
  859SOL     OW 2908   1.641   1.108   7.880
  859SOL    HW1 2909   1.727   1.110   7.828
  859SOL    HW2 2910   1.655   1.155   7.968
  860SOL     OW 2911   0.809   0.004   7.950
  860SOL    HW1 2912   0.849   0.095   7.941
  860SOL    HW2 2913   0.709   0.012   7.956
  861SOL     OW 2914   1.525   0.999   7.638
  861SOL    HW1 2915   1.462   0.923   7.651
  861SOL    HW2 2916   1.573   1.017   7.724
  862SOL     OW 2917   0.598   0.729   7.718
  862SOL    HW1 2918   0.622   0.798   7.650
  862SOL    HW2 2919   0.520   0.762   7.772
  863SOL     OW 2920   1.576   1.662   7.755
  863SOL    HW1 2921   1.665   1.708   7.758
  863SOL    HW2 2922   1.555   1.638   7.660
  864SOL     OW 2923   0.076   0.811   8.237
  864SOL    HW1 2924   0.175   0.799   8.246
  864SOL    HW2 2925   0.052   0.906   8.258
  865SOL     OW 2926   0.865   0.348   7.643
  865SOL    HW1 2927   0.924   0.411   7.594
  865SOL    HW2 2928   0.884   0.254   7.614
  866SOL     OW 2929   0.321   0.943   7.690
  866SOL    HW1 2930   0.403   0.982   7.648
  866SOL    HW2 2931   0.294   0.861   7.641
  867SOL     OW 2932   1.111   1.776   7.685
  867SOL    HW1 2933   1.051   1.714   7.735
  867SOL    HW2 2934   1.142   1.732   7.600
  868SOL     OW 2935   1.632   1.377   7.529
  868SOL    HW1 2936   1.600   1.471   7.519
  868SOL    HW2 2937   1.556   1.314   7.517
  869SOL     OW 2938   0.464   1.743   7.771
  869SOL    HW1 2939   0.497   1.782   7.857
  869SOL    HW2 2940   0.540   1.736   7.706
  870SOL     OW 2941   1.400   0.107   7.874
  870SOL    HW1 2942   1.376   0.070   7.784
  870SOL    HW2 2943   1.499   0.123   7.878
  871SOL     OW 2944   0.382   0.700   7.928
  871SOL    HW1 2945   0.427   0.610   7.925
  871SOL    HW2 2946   0.288   0.689   7.961
  872SOL     OW 2947   0.614   0.122   7.565
  872SOL    HW1 2948   0.712   0.100   7.572
  872SOL    HW2 2949   0.583   0.105   7.472
  873SOL     OW 2950   0.539   0.064   7.960
  873SOL    HW1 2951   0.458   0.065   8.018
  873SOL    HW2 2952   0.542   0.147   7.905
  874SOL     OW 2953   1.434   1.188   7.489
  874SOL    HW1 2954   1.466   1.112   7.546
  874SOL    HW2 2955   1.342   1.215   7.519
  875SOL     OW 2956   0.297   0.035   7.619
  875SOL    HW1 2957   0.346   0.119   7.598
  875SOL    HW2 2958   0.359  -0.030   7.664
  876SOL     OW 2959   0.935   0.236   7.928
  876SOL    HW1 2960   0.887   0.277   7.850
  876SOL    HW2 2961   1.034   0.234   7.909
  877SOL     OW 2962   0.459   1.152   8.189
  877SOL    HW1 2963   0.388   1.125   8.254
  877SOL    HW2 2964   0.433   1.124   8.096
  878SOL     OW 2965   1.271   1.797   8.039
  878SOL    HW1 2966   1.315   1.861   7.975
  878SOL    HW2 2967   1.221   1.849   8.109
  879SOL     OW 2968   1.032   0.549   7.464
  879SOL    HW1 2969   0.991   0.631   7.425
  879SOL    HW2 2970   1.096   0.575   7.537
  880SOL     OW 2971   1.857   0.833   7.825
  880SOL    HW1 2972   1.899   0.769   7.889
  880SOL    HW2 2973   1.819   0.782   7.747
  881SOL     OW 2974   0.488   1.385   7.622
  881SOL    HW1 2975   0.401   1.370   7.669
  881SOL    HW2 2976   0.471   1.411   7.527
  882SOL     OW 2977   1.390   0.575   7.526
  882SOL    HW1 2978   1.336   0.554   7.607
  882SOL    HW2 2979   1.481   0.534   7.535
  883SOL     OW 2980   0.527   0.256   7.776
  883SOL    HW1 2981   0.554   0.197   7.701
  883SOL    HW2 2982   0.527   0.351   7.745
  884SOL     OW 2983   0.705   1.050   7.816
  884SOL    HW1 2984   0.691   1.057   7.915
  884SOL    HW2 2985   0.789   0.999   7.798
  885SOL     OW 2986   0.367   1.100   7.949
  885SOL    HW1 2987   0.360   1.183   7.893
  885SOL    HW2 2988   0.371   1.020   7.889
  886SOL     OW 2989   1.252   1.348   7.836
  886SOL    HW1 2990   1.302   1.425   7.876
  886SOL    HW2 2991   1.157   1.350   7.868
  887SOL     OW 2992   1.582   0.639   7.920
  887SOL    HW1 2993   1.551   0.700   7.993
  887SOL    HW2 2994   1.632   0.691   7.851
  888SOL     OW 2995   1.209   0.525   7.723
  888SOL    HW1 2996   1.222   0.441   7.777
  888SOL    HW2 2997   1.180   0.599   7.783
  889SOL     OW 2998   1.622   0.367   7.822
  889SOL    HW1 2999   1.624   0.291   7.886
  889SOL    HW2 3000   1.574   0.444   7.862
  890SOL     OW 3001   1.540   0.274   7.573
  890SOL    HW1 3002   1.479   0.199   7.596
  890SOL    HW2 3003   1.562   0.326   7.656
  891SOL     OW 3004   1.303   0.838   7.490
  891SOL    HW1 3005   1.337   0.745   7.505
  891SOL    HW2 3006   1.321   0.865   7.395
  892SOL     OW 3007   0.008   1.326   7.648
  892SOL    HW1 3008  -0.085   1.347   7.617
  892SOL    HW2 3009   0.018   1.227   7.661
  893SOL     OW 3010   0.815   0.572   7.773
  893SOL    HW1 3011   0.822   0.483   7.727
  893SOL    HW2 3012   0.721   0.606   7.765
  894SOL     OW 3013   0.473   0.500   7.639
  894SOL    HW1 3014   0.534   0.580   7.643
  894SOL    HW2 3015   0.378   0.531   7.646
  895SOL     OW 3016   1.302   0.855   7.757
  895SOL    HW1 3017   1.216   0.824   7.799
  895SOL    HW2 3018   1.298   0.841   7.658
  896SOL     OW 3019   1.726   0.135   7.971
  896SOL    HW1 3020   1.799   0.118   7.904
  896SOL    HW2 3021   1.695   0.048   8.009
  897SOL     OW 3022   1.388   1.573   7.925
  897SOL    HW1 3023   1.455   1.585   7.851
  897SOL    HW2 3024   1.348   1.662   7.948
  898SOL     OW 3025   0.672   1.616   7.602
  898SOL    HW1 3026   0.681   1.626   7.503
  898SOL    HW2 3027   0.632   1.527   7.623
  899SOL     OW 3028   1.194   1.612   7.479
  899SOL    HW1 3029   1.200   1.519   7.516
  899SOL    HW2 3030   1.135   1.612   7.399
  900SOL     OW 3031   0.916   0.910   7.739
  900SOL    HW1 3032   0.979   0.948   7.671
  900SOL    HW2 3033   0.956   0.827   7.778
  901SOL     OW 3034   1.504   1.607   7.492
  901SOL    HW1 3035   1.412   1.644   7.499
  901SOL    HW2 3036   1.542   1.627   7.402
  902SOL     OW 3037   0.590   1.487   7.939
  902SOL    HW1 3038   0.632   1.429   7.869
  902SOL    HW2 3039   0.546   1.566   7.895
  903SOL     OW 3040   0.255   1.348   7.738
  903SOL    HW1 3041   0.159   1.349   7.711
  903SOL    HW2 3042   0.267   1.401   7.822
  904SOL     OW 3043   0.075   0.345   7.481
  904SOL    HW1 3044  -0.017   0.317   7.452
  904SOL    HW2 3045   0.106   0.422   7.425
  905SOL     OW 3046   0.072   0.166   7.766
  905SOL    HW1 3047   0.055   0.249   7.712
  905SOL    HW2 3048   0.162   0.129   7.744
  906SOL     OW 3049   1.183   1.335   7.567
  906SOL    HW1 3050   1.084   1.324   7.569
  906SOL    HW2 3051   1.217   1.350   7.660
  907SOL     OW 3052   1.225   0.325   7.897
  907SOL    HW1 3053   1.290   0.251   7.886
  907SOL    HW2 3054   1.245   0.375   7.981
  908SOL     OW 3055   0.594   0.745   8.100
  908SOL    HW1 3056   0.644   0.830   8.081
  908SOL    HW2 3057   0.506   0.747   8.052
  909SOL     OW 3058   0.859   1.374   7.464
  909SOL    HW1 3059   0.813   1.389   7.552
  909SOL    HW2 3060   0.903   1.459   7.434
  910SOL     OW 3061   1.083   0.984   7.535
  910SOL    HW1 3062   1.060   1.037   7.453
  910SOL    HW2 3063   1.164   0.928   7.516
  911SOL     OW 3064   0.428   0.424   7.968
  911SOL    HW1 3065   0.458   0.352   7.906
  911SOL    HW2 3066   0.389   0.384   8.051
  912SOL     OW 3067   0.770   1.330   7.749
  912SOL    HW1 3068   0.724   1.243   7.766
  912SOL    HW2 3069   0.861   1.327   7.790
  913SOL     OW 3070   1.352   0.052   7.616
  913SOL    HW1 3071   1.387   0.011   7.532
  913SOL    HW2 3072   1.262   0.014   7.636
  914SOL     OW 3073   0.039   1.077   7.748
  914SOL    HW1 3074   0.138   1.066   7.739
  914SOL    HW2 3075  -0.001   0.991   7.780
  915SOL     OW 3076   0.875   1.646   7.785
  915SOL    HW1 3077   0.798   1.611   7.731
  915SOL    HW2 3078   0.843   1.717   7.847
  916SOL     OW 3079   0.230   2.490   0.113
  916SOL    HW1 3080   0.137   2.488   0.150
  916SOL    HW2 3081   0.231   2.451   0.021
  917SOL     OW 3082   0.225   2.137   0.996
  917SOL    HW1 3083   0.260   2.120   1.088
  917SOL    HW2 3084   0.137   2.092   0.984
  918SOL     OW 3085   0.019   2.230   0.647
  918SOL    HW1 3086  -0.063   2.273   0.686
  918SOL    HW2 3087  -0.009   2.157   0.584
  919SOL     OW 3088   0.569   3.137   1.165
  919SOL    HW1 3089   0.476   3.130   1.128
  919SOL    HW2 3090   0.580   3.226   1.209
  920SOL     OW 3091   1.555   3.373   0.703
  920SOL    HW1 3092   1.498   3.357   0.784
  920SOL    HW2 3093   1.496   3.383   0.623
  921SOL     OW 3094   1.135   2.565   0.717
  921SOL    HW1 3095   1.192   2.643   0.692
  921SOL    HW2 3096   1.075   2.591   0.793
  922SOL     OW 3097   1.755   2.469   0.231
  922SOL    HW1 3098   1.743   2.456   0.132
  922SOL    HW2 3099   1.725   2.388   0.280
  923SOL     OW 3100   0.768   3.006   1.023
  923SOL    HW1 3101   0.690   3.023   1.083
  923SOL    HW2 3102   0.802   3.093   0.987
  924SOL     OW 3103   0.850   2.660   1.823
  924SOL    HW1 3104   0.846   2.736   1.888
  924SOL    HW2 3105   0.872   2.696   1.732
  925SOL     OW 3106   0.685   2.874   0.665
  925SOL    HW1 3107   0.754   2.858   0.735
  925SOL    HW2 3108   0.612   2.931   0.703
  926SOL     OW 3109   0.686   3.023   1.803
  926SOL    HW1 3110   0.746   3.102   1.817
  926SOL    HW2 3111   0.600   3.054   1.762
  927SOL     OW 3112   0.335   3.297   1.061
  927SOL    HW1 3113   0.257   3.266   1.008
  927SOL    HW2 3114   0.393   3.355   1.004
  928SOL     OW 3115   1.460   3.367   1.339
  928SOL    HW1 3116   1.484   3.461   1.365
  928SOL    HW2 3117   1.444   3.313   1.421
  929SOL     OW 3118   0.438   2.254   1.499
  929SOL    HW1 3119   0.520   2.198   1.508
  929SOL    HW2 3120   0.357   2.196   1.503
  930SOL     OW 3121   1.603   2.309   0.737
  930SOL    HW1 3122   1.529   2.355   0.687
  930SOL    HW2 3123   1.654   2.377   0.790
  931SOL     OW 3124   0.231   3.575   0.483
  931SOL    HW1 3125   0.265   3.652   0.537
  931SOL    HW2 3126   0.275   3.575   0.393
  932SOL     OW 3127   1.127   3.203   1.690
  932SOL    HW1 3128   1.174   3.203   1.778
  932SOL    HW2 3129   1.079   3.116   1.679
  933SOL     OW 3130   0.230   3.296   0.538
  933SOL    HW1 3131   0.204   3.392   0.538
  933SOL    HW2 3132   0.159   3.242   0.583
  934SOL     OW 3133   0.240   2.953   0.886
  934SOL    HW1 3134   0.254   2.869   0.938
  934SOL    HW2 3135   0.185   3.017   0.941
  935SOL     OW 3136   0.620   3.648   1.439
  935SOL    HW1 3137   0.528   3.631   1.474
  935SOL    HW2 3138   0.648   3.740   1.465
  936SOL     OW 3139   0.606   2.826   0.123
  936SOL    HW1 3140   0.613   2.910   0.069
  936SOL    HW2 3141   0.652   2.839   0.211
  937SOL     OW 3142   1.594   1.976   1.480
  937SOL    HW1 3143   1.576   2.043   1.408
  937SOL    HW2 3144   1.591   2.022   1.569
  938SOL     OW 3145   0.122   2.505   0.563
  938SOL    HW1 3146   0.077   2.417   0.580
  938SOL    HW2 3147   0.121   2.559   0.647
  939SOL     OW 3148   1.842   3.629   0.359
  939SOL    HW1 3149   1.896   3.600   0.439
  939SOL    HW2 3150   1.872   3.719   0.330
  940SOL     OW 3151   0.027   3.458   0.117
  940SOL    HW1 3152   0.008   3.362   0.138
  940SOL    HW2 3153  -0.006   3.516   0.192
  941SOL     OW 3154   1.689   2.784   0.612
  941SOL    HW1 3155   1.784   2.755   0.620
  941SOL    HW2 3156   1.681   2.849   0.537
  942SOL     OW 3157   1.641   2.970   0.432
  942SOL    HW1 3158   1.727   2.972   0.380
  942SOL    HW2 3159   1.655   3.017   0.520
  943SOL     OW 3160   0.113   2.599   1.597
  943SOL    HW1 3161   0.201   2.586   1.642
  943SOL    HW2 3162   0.100   2.696   1.575
  944SOL     OW 3163   0.613   3.227   0.726
  944SOL    HW1 3164   0.564   3.140   0.735
  944SOL    HW2 3165   0.590   3.270   0.639
  945SOL     OW 3166   1.293   3.090   1.423
  945SOL    HW1 3167   1.330   3.017   1.365
  945SOL    HW2 3168   1.345   3.095   1.508
  946SOL     OW 3169   0.809   1.866   0.502
  946SOL    HW1 3170   0.849   1.957   0.493
  946SOL    HW2 3171   0.709   1.874   0.508
  947SOL     OW 3172   0.197   2.838   1.264
  947SOL    HW1 3173   0.286   2.793   1.250
  947SOL    HW2 3174   0.124   2.773   1.245
  948SOL     OW 3175   1.525   2.861   0.190
  948SOL    HW1 3176   1.462   2.785   0.203
  948SOL    HW2 3177   1.573   2.879   0.276
  949SOL     OW 3178   1.187   3.654   1.616
  949SOL    HW1 3179   1.211   3.714   1.540
  949SOL    HW2 3180   1.194   3.559   1.586
  950SOL     OW 3181   0.317   2.113   1.801
  950SOL    HW1 3182   0.388   2.184   1.807
  950SOL    HW2 3183   0.229   2.152   1.829
  951SOL     OW 3184   1.466   3.279   0.953
  951SOL    HW1 3185   1.407   3.285   1.033
  951SOL    HW2 3186   1.451   3.191   0.907
  952SOL     OW 3187   1.667   3.576   0.572
  952SOL    HW1 3188   1.626   3.553   0.484
  952SOL    HW2 3189   1.649   3.502   0.637
  953SOL     OW 3190   0.598   2.591   0.270
  953SOL    HW1 3191   0.622   2.660   0.202
  953SOL    HW2 3192   0.520   2.624   0.324
  954SOL     OW 3193   1.281   2.207   0.944
  954SOL    HW1 3194   1.195   2.157   0.931
  954SOL    HW2 3195   1.343   2.153   1.000
  955SOL     OW 3196   1.576   3.524   0.307
  955SOL    HW1 3197   1.665   3.570   0.310
  955SOL    HW2 3198   1.555   3.500   0.212
  956SOL     OW 3199   0.807   2.467   1.465
  956SOL    HW1 3200   0.760   2.464   1.554
  956SOL    HW2 3201   0.756   2.412   1.399
  957SOL     OW 3202   1.394   2.331   1.674
  957SOL    HW1 3203   1.374   2.374   1.762
  957SOL    HW2 3204   1.472   2.269   1.683
  958SOL     OW 3205   0.973   2.752   1.572
  958SOL    HW1 3206   1.019   2.668   1.543
  958SOL    HW2 3207   0.917   2.786   1.497
  959SOL     OW 3208   0.991   2.272   1.242
  959SOL    HW1 3209   0.914   2.306   1.296
  959SOL    HW2 3210   0.957   2.221   1.163
  960SOL     OW 3211   1.041   2.563   0.429
  960SOL    HW1 3212   1.067   2.559   0.525
  960SOL    HW2 3213   0.956   2.512   0.415
  961SOL     OW 3214   0.076   2.673   0.789
  961SOL    HW1 3215   0.175   2.661   0.798
  961SOL    HW2 3216   0.052   2.768   0.810
  962SOL     OW 3217   0.130   3.683   1.571
  962SOL    HW1 3218   0.120   3.668   1.670
  962SOL    HW2 3219   0.044   3.719   1.535
  963SOL     OW 3220   0.865   2.210   0.195
  963SOL    HW1 3221   0.924   2.273   0.146
  963SOL    HW2 3222   0.884   2.116   0.166
  964SOL     OW 3223   1.719   2.447   1.831
  964SOL    HW1 3224   1.693   2.536   1.795
  964SOL    HW2 3225   1.717   2.379   1.758
  965SOL     OW 3226   1.362   3.006   0.545
  965SOL    HW1 3227   1.445   2.977   0.497
  965SOL    HW2 3228   1.313   3.073   0.489
  966SOL     OW 3229   0.550   2.058   0.885
  966SOL    HW1 3230   0.545   2.053   0.985
  966SOL    HW2 3231   0.552   2.154   0.856
  967SOL     OW 3232   1.008   3.318   0.477
  967SOL    HW1 3233   0.962   3.390   0.425
  967SOL    HW2 3234   1.004   3.338   0.575
  968SOL     OW 3235   0.351   3.663   0.853
  968SOL    HW1 3236   0.401   3.577   0.859
  968SOL    HW2 3237   0.416   3.740   0.850
  969SOL     OW 3238   1.795   2.928   0.873
  969SOL    HW1 3239   1.733   2.913   0.797
  969SOL    HW2 3240   1.743   2.939   0.958
  970SOL     OW 3241   1.227   3.412   1.506
  970SOL    HW1 3242   1.233   3.335   1.570
  970SOL    HW2 3243   1.175   3.386   1.426
  971SOL     OW 3244   0.321   2.805   0.242
  971SOL    HW1 3245   0.403   2.844   0.200
  971SOL    HW2 3246   0.294   2.723   0.193
  972SOL     OW 3247   1.458   2.597   0.728
  972SOL    HW1 3248   1.453   2.532   0.803
  972SOL    HW2 3249   1.538   2.656   0.741
  973SOL     OW 3250   0.461   3.128   1.727
  973SOL    HW1 3251   0.411   3.129   1.641
  973SOL    HW2 3252   0.398   3.110   1.803
  974SOL     OW 3253   1.111   3.638   0.237
  974SOL    HW1 3254   1.051   3.576   0.287
  974SOL    HW2 3255   1.142   3.594   0.152
  975SOL     OW 3256   0.202   2.147   1.498
  975SOL    HW1 3257   0.122   2.207   1.485
  975SOL    HW2 3258   0.192   2.098   1.584
  976SOL     OW 3259   1.632   3.239   0.081
  976SOL    HW1 3260   1.600   3.333   0.071
  976SOL    HW2 3261   1.556   3.176   0.069
  977SOL     OW 3262   0.464   3.605   0.323
  977SOL    HW1 3263   0.497   3.644   0.409
  977SOL    HW2 3264   0.540   3.598   0.258
  978SOL     OW 3265   1.400   1.969   0.426
  978SOL    HW1 3266   1.376   1.932   0.336
  978SOL    HW2 3267   1.499   1.985   0.430
  979SOL     OW 3268   0.249   3.647   1.241
  979SOL    HW1 3269   0.306   3.582   1.291
  979SOL    HW2 3270   0.233   3.614   1.148
  980SOL     OW 3271   0.940   3.560   0.904
  980SOL    HW1 3272   1.020   3.503   0.925
  980SOL    HW2 3273   0.891   3.520   0.827
  981SOL     OW 3274   0.382   2.562   0.480
  981SOL    HW1 3275   0.427   2.472   0.477
  981SOL    HW2 3276   0.288   2.551   0.513
  982SOL     OW 3277   1.547   2.084   1.729
  982SOL    HW1 3278   1.542   2.121   1.821
  982SOL    HW2 3279   1.475   2.015   1.717
  983SOL     OW 3280   0.614   1.984   0.117
  983SOL    HW1 3281   0.712   1.962   0.124
  983SOL    HW2 3282   0.583   1.967   0.024
  984SOL     OW 3283   0.781   2.126   1.749
  984SOL    HW1 3284   0.848   2.065   1.792
  984SOL    HW2 3285   0.708   2.145   1.814
  985SOL     OW 3286   0.888   3.376   1.195
  985SOL    HW1 3287   0.865   3.351   1.101
  985SOL    HW2 3288   0.949   3.307   1.234
  986SOL     OW 3289   1.351   2.452   1.433
  986SOL    HW1 3290   1.379   2.409   1.518
  986SOL    HW2 3291   1.376   2.548   1.434
  987SOL     OW 3292   0.803   3.264   0.924
  987SOL    HW1 3293   0.893   3.278   0.882
  987SOL    HW2 3294   0.732   3.266   0.853
  988SOL     OW 3295   0.922   2.365   0.899
  988SOL    HW1 3296   0.897   2.356   0.803
  988SOL    HW2 3297   0.970   2.283   0.930
  989SOL     OW 3298   0.539   1.926   0.512
  989SOL    HW1 3299   0.458   1.927   0.570
  989SOL    HW2 3300   0.542   2.009   0.457
  990SOL     OW 3301   1.434   3.050   0.041
  990SOL    HW1 3302   1.466   2.974   0.098
  990SOL    HW2 3303   1.342   3.077   0.071
  991SOL     OW 3304   0.297   1.897   0.171
  991SOL    HW1 3305   0.346   1.981   0.150
  991SOL    HW2 3306   0.359   1.832   0.216
  992SOL     OW 3307   0.935   2.098   0.480
  992SOL    HW1 3308   0.887   2.139   0.402
  992SOL    HW2 3309   1.034   2.096   0.461
  993SOL     OW 3310   1.076   2.545   1.464
  993SOL    HW1 3311   0.996   2.484   1.467
  993SOL    HW2 3312   1.157   2.492   1.440
  994SOL     OW 3313   1.227   3.432   0.793
  994SOL    HW1 3314   1.248   3.506   0.728
  994SOL    HW2 3315   1.295   3.432   0.866
  995SOL     OW 3316   0.459   3.014   0.741
  995SOL    HW1 3317   0.388   2.987   0.806
  995SOL    HW2 3318   0.433   2.986   0.648
  996SOL     OW 3319   1.271   3.659   0.591
  996SOL    HW1 3320   1.315   3.723   0.527
  996SOL    HW2 3321   1.221   3.711   0.661
  997SOL     OW 3322   1.032   2.411   0.016
  997SOL    HW1 3323   0.991   2.493  -0.023
  997SOL    HW2 3324   1.096   2.437   0.089
  998SOL     OW 3325   0.078   2.418   1.386
  998SOL    HW1 3326   0.170   2.417   1.345
  998SOL    HW2 3327   0.072   2.492   1.453
  999SOL     OW 3328   0.561   2.084   1.147
  999SOL    HW1 3329   0.599   2.000   1.184
  999SOL    HW2 3330   0.473   2.103   1.191
 1000SOL     OW 3331   0.866   2.316   0.642
 1000SOL    HW1 3332   0.834   2.388   0.580
 1000SOL    HW2 3333   0.890   2.235   0.589
 1001SOL     OW 3334   1.017   1.901   0.753
 1001SOL    HW1 3335   0.945   1.906   0.684
 1001SOL    HW2 3336   0.993   1.832   0.822
 1002SOL     OW 3337   1.429   3.035   0.867
 1002SOL    HW1 3338   1.374   2.951   0.860
 1002SOL    HW2 3339   1.455   3.064   0.775
 1003SOL     OW 3340   1.466   2.452   0.992
 1003SOL    HW1 3341   1.436   2.357   0.999
 1003SOL    HW2 3342   1.539   2.468   1.058
 1004SOL     OW 3343   1.857   2.695   0.377
 1004SOL    HW1 3344   1.899   2.631   0.441
 1004SOL    HW2 3345   1.819   2.644   0.299
 1005SOL     OW 3346   0.488   3.247   0.174
 1005SOL    HW1 3347   0.401   3.232   0.221
 1005SOL    HW2 3348   0.471   3.273   0.079
 1006SOL     OW 3349   1.664   3.142   0.657
 1006SOL    HW1 3350   1.763   3.150   0.671
 1006SOL    HW2 3351   1.619   3.226   0.688
 1007SOL     OW 3352   1.390   2.437   0.078
 1007SOL    HW1 3353   1.336   2.416   0.159
 1007SOL    HW2 3354   1.481   2.396   0.087
 1008SOL     OW 3355   0.527   2.118   0.328
 1008SOL    HW1 3356   0.554   2.059   0.253
 1008SOL    HW2 3357   0.527   2.213   0.297
 1009SOL     OW 3358   1.754   3.085   1.588
 1009SOL    HW1 3359   1.845   3.046   1.575
 1009SOL    HW2 3360   1.762   3.181   1.612
 1010SOL     OW 3361   1.064   3.209   1.340
 1010SOL    HW1 3362   0.984   3.186   1.395
 1010SOL    HW2 3363   1.147   3.183   1.389
 1011SOL     OW 3364   1.592   3.491   1.625
 1011SOL    HW1 3365   1.619   3.525   1.535
 1011SOL    HW2 3366   1.671   3.453   1.671
 1012SOL     OW 3367   1.111   3.057   1.100
 1012SOL    HW1 3368   1.071   3.101   1.181
 1012SOL    HW2 3369   1.070   3.094   1.017
 1013SOL     OW 3370   1.638   2.961   1.079
 1013SOL    HW1 3371   1.643   3.042   1.138
 1013SOL    HW2 3372   1.552   2.963   1.028
 1014SOL     OW 3373   0.915   1.951   1.402
 1014SOL    HW1 3374   0.940   1.931   1.307
 1014SOL    HW2 3375   0.987   2.007   1.444
 1015SOL     OW 3376   0.980   2.978   1.719
 1015SOL    HW1 3377   0.881   2.984   1.729
 1015SOL    HW2 3378   1.003   2.898   1.663
 1016SOL     OW 3379   0.705   2.912   0.368
 1016SOL    HW1 3380   0.691   2.919   0.467
 1016SOL    HW2 3381   0.789   2.861   0.350
 1017SOL     OW 3382   0.410   2.675   1.251
 1017SOL    HW1 3383   0.496   2.687   1.301
 1017SOL    HW2 3384   0.368   2.588   1.278
 1018SOL     OW 3385   1.274   2.248   1.262
 1018SOL    HW1 3386   1.295   2.322   1.326
 1018SOL    HW2 3387   1.185   2.265   1.219
 1019SOL     OW 3388   0.064   3.426   1.331
 1019SOL    HW1 3389   0.018   3.508   1.297
 1019SOL    HW2 3390   0.162   3.445   1.340
 1020SOL     OW 3391   0.367   2.962   0.501
 1020SOL    HW1 3392   0.360   3.045   0.445
 1020SOL    HW2 3393   0.371   2.882   0.441
 1021SOL     OW 3394   0.566   2.399   0.865
 1021SOL    HW1 3395   0.578   2.465   0.791
 1021SOL    HW2 3396   0.612   2.433   0.948
 1022SOL     OW 3397   1.252   3.210   0.388
 1022SOL    HW1 3398   1.302   3.287   0.428
 1022SOL    HW2 3399   1.157   3.212   0.420
 1023SOL     OW 3400   1.272   3.307   1.142
 1023SOL    HW1 3401   1.319   3.320   1.229
 1023SOL    HW2 3402   1.206   3.233   1.151
 1024SOL     OW 3403   1.582   2.501   0.472
 1024SOL    HW1 3404   1.551   2.562   0.545
 1024SOL    HW2 3405   1.632   2.553   0.403
 1025SOL     OW 3406   0.354   3.372   1.329
 1025SOL    HW1 3407   0.333   3.328   1.242
 1025SOL    HW2 3408   0.451   3.398   1.332
 1026SOL     OW 3409   0.402   2.613   1.598
 1026SOL    HW1 3410   0.470   2.668   1.551
 1026SOL    HW2 3411   0.442   2.525   1.625
 1027SOL     OW 3412   1.587   2.641   1.670
 1027SOL    HW1 3413   1.495   2.679   1.665
 1027SOL    HW2 3414   1.647   2.688   1.605
 1028SOL     OW 3415   1.013   1.967   1.770
 1028SOL    HW1 3416   1.019   2.052   1.718
 1028SOL    HW2 3417   1.045   1.891   1.713
 1029SOL     OW 3418   0.504   1.912   1.740
 1029SOL    HW1 3419   0.462   1.855   1.670
 1029SOL    HW2 3420   0.438   1.981   1.772
 1030SOL     OW 3421   0.573   2.732   1.029
 1030SOL    HW1 3422   0.617   2.821   1.020
 1030SOL    HW2 3423   0.510   2.732   1.106
 1031SOL     OW 3424   1.360   2.724   1.045
 1031SOL    HW1 3425   1.285   2.724   0.979
 1031SOL    HW2 3426   1.397   2.632   1.054
 1032SOL     OW 3427   1.209   2.387   0.275
 1032SOL    HW1 3428   1.222   2.303   0.329
 1032SOL    HW2 3429   1.180   2.461   0.335
 1033SOL     OW 3430   0.307   2.075   1.231
 1033SOL    HW1 3431   0.284   2.112   1.321
 1033SOL    HW2 3432   0.277   1.980   1.225
 1034SOL     OW 3433   0.037   3.172   1.282
 1034SOL    HW1 3434   0.090   3.123   1.350
 1034SOL    HW2 3435   0.059   3.270   1.287
 1035SOL     OW 3436   0.732   2.496   1.064
 1035SOL    HW1 3437   0.791   2.470   0.988
 1035SOL    HW2 3438   0.704   2.592   1.053
 1036SOL     OW 3439   1.728   2.797   1.854
 1036SOL    HW1 3440   1.682   2.790   1.765
 1036SOL    HW2 3441   1.666   2.841   1.920
 1037SOL     OW 3442   0.307   1.925   0.618
 1037SOL    HW1 3443   0.296   2.019   0.651
 1037SOL    HW2 3444   0.302   1.862   0.695
 1038SOL     OW 3445   1.622   2.229   0.374
 1038SOL    HW1 3446   1.624   2.153   0.438
 1038SOL    HW2 3447   1.574   2.306   0.414
 1039SOL     OW 3448   1.023   2.628   0.966
 1039SOL    HW1 3449   1.038   2.649   1.062
 1039SOL    HW2 3450   0.993   2.533   0.957
 1040SOL     OW 3451   0.980   3.435   1.700
 1040SOL    HW1 3452   0.960   3.479   1.612
 1040SOL    HW2 3453   1.019   3.344   1.684
 1041SOL     OW 3454   1.859   3.380   1.605
 1041SOL    HW1 3455   1.873   3.407   1.510
 1041SOL    HW2 3456   1.942   3.402   1.658
 1042SOL     OW 3457   0.350   2.760   1.804
 1042SOL    HW1 3458   0.426   2.804   1.852
 1042SOL    HW2 3459   0.385   2.713   1.722
 1043SOL     OW 3460   1.540   2.136   0.125
 1043SOL    HW1 3461   1.479   2.061   0.148
 1043SOL    HW2 3462   1.562   2.188   0.208
 1044SOL     OW 3463   1.303   2.700   0.042
 1044SOL    HW1 3464   1.337   2.607   0.057
 1044SOL    HW2 3465   1.321   2.727  -0.053
 1045SOL     OW 3466   1.068   3.195   0.849
 1045SOL    HW1 3467   1.075   3.111   0.794
 1045SOL    HW2 3468   1.130   3.264   0.813
 1046SOL     OW 3469   0.319   2.672   0.949
 1046SOL    HW1 3470   0.412   2.708   0.954
 1046SOL    HW2 3471   0.313   2.587   1.001
 1047SOL     OW 3472   0.339   2.371   1.006
 1047SOL    HW1 3473   0.287   2.288   0.989
 1047SOL    HW2 3474   0.416   2.376   0.942
 1048SOL     OW 3475   1.138   2.242   1.678
 1048SOL    HW1 3476   1.093   2.305   1.742
 1048SOL    HW2 3477   1.231   2.273   1.661
 1049SOL     OW 3478   1.160   2.069   1.477
 1049SOL    HW1 3479   1.160   2.133   1.554
 1049SOL    HW2 3480   1.188   2.117   1.394
 1050SOL     OW 3481   0.008   3.188   0.200
 1050SOL    HW1 3482  -0.085   3.209   0.169
 1050SOL    HW2 3483   0.018   3.089   0.213
 1051SOL     OW 3484   0.088   3.663   0.927
 1051SOL    HW1 3485   0.046   3.577   0.900
 1051SOL    HW2 3486   0.182   3.666   0.893
 1052SOL     OW 3487   0.504   3.430   0.910
 1052SOL    HW1 3488   0.570   3.504   0.919
 1052SOL    HW2 3489   0.548   3.351   0.868
 1053SOL     OW 3490   1.002   2.658   1.238
 1053SOL    HW1 3491   1.043   2.626   1.324
 1053SOL    HW2 3492   0.906   2.631   1.235
 1054SOL     OW 3493   0.040   2.406   1.114
 1054SOL    HW1 3494   0.125   2.373   1.073
 1054SOL    HW2 3495   0.053   2.421   1.212
 1055SOL     OW 3496   0.189   2.382   1.722
 1055SOL    HW1 3497   0.248   2.342   1.652
 1055SOL    HW2 3498   0.131   2.453   1.681
 1056SOL     OW 3499   1.369   2.812   1.660
 1056SOL    HW1 3500   1.408   2.901   1.680
 1056SOL    HW2 3501   1.379   2.792   1.563
 1057SOL     OW 3502   0.815   2.434   0.325
 1057SOL    HW1 3503   0.822   2.345   0.279
 1057SOL    HW2 3504   0.721   2.468   0.317
 1058SOL     OW 3505   1.657   2.466   1.206
 1058SOL    HW1 3506   1.619   2.397   1.268
 1058SOL    HW2 3507   1.739   2.430   1.162
 1059SOL     OW 3508   0.252   3.426   1.744
 1059SOL    HW1 3509   0.222   3.483   1.820
 1059SOL    HW2 3510   0.245   3.329   1.770
 1060SOL     OW 3511   0.671   2.326   1.269
 1060SOL    HW1 3512   0.637   2.237   1.239
 1060SOL    HW2 3513   0.697   2.380   1.189
 1061SOL     OW 3514   0.930   3.540   1.465
 1061SOL    HW1 3515   0.906   3.522   1.370
 1061SOL    HW2 3516   0.960   3.634   1.475
 1062SOL     OW 3517   0.473   2.362   0.191
 1062SOL    HW1 3518   0.534   2.442   0.195
 1062SOL    HW2 3519   0.378   2.393   0.198
 1063SOL     OW 3520   0.159   2.999   1.466
 1063SOL    HW1 3521   0.181   2.938   1.542
 1063SOL    HW2 3522   0.169   2.950   1.380
 1064SOL     OW 3523   1.347   2.921   1.234
 1064SOL    HW1 3524   1.371   2.858   1.160
 1064SOL    HW2 3525   1.257   2.961   1.216
 1065SOL     OW 3526   1.302   2.717   0.309
 1065SOL    HW1 3527   1.216   2.686   0.351
 1065SOL    HW2 3528   1.298   2.703   0.210
 1066SOL     OW 3529   1.759   3.609   1.154
 1066SOL    HW1 3530   1.820   3.639   1.081
 1066SOL    HW2 3531   1.721   3.520   1.132
 1067SOL     OW 3532   1.252   3.593   1.128
 1067SOL    HW1 3533   1.336   3.598   1.074
 1067SOL    HW2 3534   1.229   3.497   1.146
 1068SOL     OW 3535   0.083   3.120   1.022
 1068SOL    HW1 3536   0.078   3.119   1.122
 1068SOL    HW2 3537   0.000   3.079   0.984
 1069SOL     OW 3538   0.688   3.524   1.716
 1069SOL    HW1 3539   0.632   3.605   1.725
 1069SOL    HW2 3540   0.740   3.528   1.630
 1070SOL     OW 3541   0.903   1.948   0.133
 1070SOL    HW1 3542   0.954   1.949   0.047
 1070SOL    HW2 3543   0.959   1.906   0.204
 1071SOL     OW 3544   1.726   1.997   0.523
 1071SOL    HW1 3545   1.799   1.980   0.456
 1071SOL    HW2 3546   1.695   1.910   0.561
 1072SOL     OW 3547   1.388   3.435   0.477
 1072SOL    HW1 3548   1.455   3.447   0.403
 1072SOL    HW2 3549   1.348   3.524   0.500
 1073SOL     OW 3550   0.130   3.656   1.851
 1073SOL    HW1 3551   0.089   3.582   1.904
 1073SOL    HW2 3552   0.194   3.707   1.909
 1074SOL     OW 3553   1.280   2.789   0.672
 1074SOL    HW1 3554   1.340   2.708   0.674
 1074SOL    HW2 3555   1.320   2.858   0.612
 1075SOL     OW 3556   0.830   3.135   1.422
 1075SOL    HW1 3557   0.825   3.168   1.517
 1075SOL    HW2 3558   0.744   3.154   1.376
 1076SOL     OW 3559   0.672   3.478   0.154
 1076SOL    HW1 3560   0.681   3.488   0.055
 1076SOL    HW2 3561   0.632   3.389   0.175
 1077SOL     OW 3562   1.650   3.582   1.394
 1077SOL    HW1 3563   1.703   3.592   1.310
 1077SOL    HW2 3564   1.623   3.672   1.428
 1078SOL     OW 3565   1.841   2.037   0.963
 1078SOL    HW1 3566   1.880   1.952   0.927
 1078SOL    HW2 3567   1.743   2.039   0.944
 1079SOL     OW 3568   0.263   2.188   0.720
 1079SOL    HW1 3569   0.184   2.239   0.686
 1079SOL    HW2 3570   0.254   2.173   0.818
 1080SOL     OW 3571   1.194   3.474   0.031
 1080SOL    HW1 3572   1.200   3.381   0.068
 1080SOL    HW2 3573   1.135   3.474  -0.049
 1081SOL     OW 3574   0.822   2.864   1.372
 1081SOL    HW1 3575   0.862   2.863   1.280
 1081SOL    HW2 3576   0.832   2.956   1.412
 1082SOL     OW 3577   0.916   2.772   0.291
 1082SOL    HW1 3578   0.979   2.810   0.223
 1082SOL    HW2 3579   0.956   2.689   0.330
 1083SOL     OW 3580   1.504   3.469   0.044
 1083SOL    HW1 3581   1.412   3.506   0.051
 1083SOL    HW2 3582   1.542   3.489  -0.046
 1084SOL     OW 3583   0.372   3.150   1.490
 1084SOL    HW1 3584   0.359   3.243   1.456
 1084SOL    HW2 3585   0.288   3.098   1.477
 1085SOL     OW 3586   1.614   3.154   1.289
 1085SOL    HW1 3587   1.674   3.157   1.369
 1085SOL    HW2 3588   1.539   3.218   1.302
 1086SOL     OW 3589   1.039   2.960   0.696
 1086SOL    HW1 3590   0.969   2.913   0.750
 1086SOL    HW2 3591   1.098   2.892   0.653
 1087SOL     OW 3592   1.014   2.098   0.971
 1087SOL    HW1 3593   1.006   2.062   0.878
 1087SOL    HW2 3594   1.012   2.022   1.036
 1088SOL     OW 3595   0.590   3.349   0.491
 1088SOL    HW1 3596   0.632   3.291   0.421
 1088SOL    HW2 3597   0.546   3.428   0.447
 1089SOL     OW 3598   1.709   2.247   1.381
 1089SOL    HW1 3599   1.782   2.316   1.385
 1089SOL    HW2 3600   1.737   2.172   1.322
 1090SOL     OW 3601   0.255   3.210   0.290
 1090SOL    HW1 3602   0.159   3.211   0.263
 1090SOL    HW2 3603   0.267   3.263   0.374
 1091SOL     OW 3604   0.105   2.875   1.726
 1091SOL    HW1 3605   0.028   2.842   1.780
 1091SOL    HW2 3606   0.190   2.845   1.768
 1092SOL     OW 3607   0.672   2.065   1.489
 1092SOL    HW1 3608   0.762   2.049   1.449
 1092SOL    HW2 3609   0.680   2.070   1.588
 1093SOL     OW 3610   0.075   2.207   0.033
 1093SOL    HW1 3611  -0.017   2.179   0.004
 1093SOL    HW2 3612   0.106   2.284  -0.023
 1094SOL     OW 3613   1.440   2.718   1.398
 1094SOL    HW1 3614   1.383   2.770   1.335
 1094SOL    HW2 3615   1.536   2.730   1.374
 1095SOL     OW 3616   0.072   2.028   0.318
 1095SOL    HW1 3617   0.055   2.111   0.264
 1095SOL    HW2 3618   0.162   1.991   0.296
 1096SOL     OW 3619   1.183   3.197   0.119
 1096SOL    HW1 3620   1.084   3.186   0.121
 1096SOL    HW2 3621   1.217   3.212   0.212
 1097SOL     OW 3622   0.613   2.704   1.431
 1097SOL    HW1 3623   0.669   2.785   1.414
 1097SOL    HW2 3624   0.672   2.624   1.434
 1098SOL     OW 3625   1.493   3.629   0.959
 1098SOL    HW1 3626   1.526   3.693   0.890
 1098SOL    HW2 3627   1.559   3.623   1.034
 1099SOL     OW 3628   0.716   2.427   1.708
 1099SOL    HW1 3629   0.735   2.492   1.782
 1099SOL    HW2 3630   0.776   2.347   1.717
 1100SOL     OW 3631   1.450   3.082   1.633
 1100SOL    HW1 3632   1.441   3.072   1.732
 1100SOL    HW2 3633   1.546   3.075   1.607
 1101SOL     OW 3634   0.390   3.603   1.560
 1101SOL    HW1 3635   0.299   3.644   1.558
 1101SOL    HW2 3636   0.383   3.509   1.592
 1102SOL     OW 3637   1.674   2.745   1.254
 1102SOL    HW1 3638   1.647   2.656   1.217
 1102SOL    HW2 3639   1.675   2.813   1.181
 1103SOL     OW 3640   1.225   2.187   0.449
 1103SOL    HW1 3641   1.290   2.113   0.438
 1103SOL    HW2 3642   1.245   2.237   0.533
 1104SOL     OW 3643   0.594   2.607   0.652
 1104SOL    HW1 3644   0.644   2.692   0.633
 1104SOL    HW2 3645   0.506   2.609   0.604
 1105SOL     OW 3646   1.777   2.204   1.642
 1105SOL    HW1 3647   1.760   2.235   1.548
 1105SOL    HW2 3648   1.693   2.167   1.680
 1106SOL     OW 3649   1.730   2.796   1.517
 1106SOL    HW1 3650   1.768   2.887   1.532
 1106SOL    HW2 3651   1.722   2.779   1.418
 1107SOL     OW 3652   0.859   3.236   0.016
 1107SOL    HW1 3653   0.813   3.251   0.104
 1107SOL    HW2 3654   0.903   3.321  -0.014
 1108SOL     OW 3655   0.661   3.652   0.953
 1108SOL    HW1 3656   0.615   3.740   0.940
 1108SOL    HW2 3657   0.760   3.664   0.946
 1109SOL     OW 3658   0.859   2.818   0.861
 1109SOL    HW1 3659   0.913   2.749   0.909
 1109SOL    HW2 3660   0.827   2.887   0.927
 1110SOL     OW 3661   1.083   2.846   0.087
 1110SOL    HW1 3662   1.060   2.899   0.005
 1110SOL    HW2 3663   1.164   2.790   0.068
 1111SOL     OW 3664   1.861   3.431   0.851
 1111SOL    HW1 3665   1.790   3.419   0.781
 1111SOL    HW2 3666   1.862   3.352   0.911
 1112SOL     OW 3667   0.221   3.176   1.844
 1112SOL    HW1 3668   0.156   3.103   1.823
 1112SOL    HW2 3669   0.225   3.190   1.942
 1113SOL     OW 3670   0.079   3.102   0.653
 1113SOL    HW1 3671   0.078   3.055   0.741
 1113SOL    HW2 3672   0.161   3.074   0.602
 1114SOL     OW 3673   0.672   3.253   1.624
 1114SOL    HW1 3674   0.594   3.203   1.662
 1114SOL    HW2 3675   0.669   3.348   1.655
 1115SOL     OW 3676   1.824   2.054   1.227
 1115SOL    HW1 3677   1.820   1.964   1.271
 1115SOL    HW2 3678   1.827   2.043   1.128
 1116SOL     OW 3679   0.428   2.286   0.520
 1116SOL    HW1 3680   0.458   2.214   0.458
 1116SOL    HW2 3681   0.389   2.246   0.603
 1117SOL     OW 3682   1.705   3.349   1.104
 1117SOL    HW1 3683   1.612   3.324   1.077
 1117SOL    HW2 3684   1.731   3.299   1.186
 1118SOL     OW 3685   0.317   2.409   1.280
 1118SOL    HW1 3686   0.355   2.350   1.352
 1118SOL    HW2 3687   0.357   2.383   1.192
 1119SOL     OW 3688   0.812   3.448   0.687
 1119SOL    HW1 3689   0.844   3.458   0.593
 1119SOL    HW2 3690   0.733   3.386   0.689
 1120SOL     OW 3691   1.424   2.076   1.112
 1120SOL    HW1 3692   1.476   2.011   1.167
 1120SOL    HW2 3693   1.375   2.139   1.173
 1121SOL     OW 3694   1.001   1.896   1.154
 1121SOL    HW1 3695   0.938   1.824   1.123
 1121SOL    HW2 3696   1.094   1.860   1.154
 1122SOL     OW 3697   0.770   3.192   0.301
 1122SOL    HW1 3698   0.724   3.105   0.318
 1122SOL    HW2 3699   0.861   3.189   0.342
 1123SOL     OW 3700   0.618   3.429   1.284
 1123SOL    HW1 3701   0.613   3.511   1.341
 1123SOL    HW2 3702   0.707   3.426   1.239
 1124SOL     OW 3703   1.352   1.914   0.168
 1124SOL    HW1 3704   1.387   1.873   0.084
 1124SOL    HW2 3705   1.262   1.876   0.188
 1125SOL     OW 3706   1.300   2.315   0.691
 1125SOL    HW1 3707   1.241   2.395   0.695
 1125SOL    HW2 3708   1.315   2.280   0.784
 1126SOL     OW 3709   1.593   2.083   0.882
 1126SOL    HW1 3710   1.509   2.082   0.936
 1126SOL    HW2 3711   1.595   2.166   0.826
 1127SOL     OW 3712   0.039   2.939   0.300
 1127SOL    HW1 3713   0.138   2.928   0.291
 1127SOL    HW2 3714  -0.001   2.853   0.332
 1128SOL     OW 3715   0.875   3.508   0.337
 1128SOL    HW1 3716   0.798   3.473   0.283
 1128SOL    HW2 3717   0.843   3.579   0.399
 1129SOL     OW 3718   0.230   2.490   1.975
 1129SOL    HW1 3719   0.137   2.488   2.012
 1129SOL    HW2 3720   0.231   2.451   1.883
 1130SOL     OW 3721   0.225   2.137   2.858
 1130SOL    HW1 3722   0.260   2.120   2.950
 1130SOL    HW2 3723   0.137   2.092   2.846
 1131SOL     OW 3724   0.019   2.230   2.509
 1131SOL    HW1 3725  -0.063   2.273   2.548
 1131SOL    HW2 3726  -0.009   2.157   2.446
 1132SOL     OW 3727   0.569   3.137   3.027
 1132SOL    HW1 3728   0.476   3.130   2.990
 1132SOL    HW2 3729   0.580   3.226   3.071
 1133SOL     OW 3730   1.555   3.373   2.565
 1133SOL    HW1 3731   1.498   3.357   2.646
 1133SOL    HW2 3732   1.496   3.383   2.485
 1134SOL     OW 3733   1.135   2.565   2.579
 1134SOL    HW1 3734   1.192   2.643   2.554
 1134SOL    HW2 3735   1.075   2.591   2.655
 1135SOL     OW 3736   1.755   2.469   2.093
 1135SOL    HW1 3737   1.743   2.456   1.994
 1135SOL    HW2 3738   1.725   2.388   2.142
 1136SOL     OW 3739   0.768   3.006   2.885
 1136SOL    HW1 3740   0.690   3.023   2.945
 1136SOL    HW2 3741   0.802   3.093   2.849
 1137SOL     OW 3742   0.850   2.660   3.685
 1137SOL    HW1 3743   0.846   2.736   3.750
 1137SOL    HW2 3744   0.872   2.696   3.594
 1138SOL     OW 3745   0.685   2.874   2.527
 1138SOL    HW1 3746   0.754   2.858   2.597
 1138SOL    HW2 3747   0.612   2.931   2.565
 1139SOL     OW 3748   0.686   3.023   3.665
 1139SOL    HW1 3749   0.746   3.102   3.679
 1139SOL    HW2 3750   0.600   3.054   3.624
 1140SOL     OW 3751   0.335   3.297   2.923
 1140SOL    HW1 3752   0.257   3.266   2.870
 1140SOL    HW2 3753   0.393   3.355   2.866
 1141SOL     OW 3754   1.460   3.367   3.201
 1141SOL    HW1 3755   1.484   3.461   3.227
 1141SOL    HW2 3756   1.444   3.313   3.283
 1142SOL     OW 3757   0.438   2.254   3.361
 1142SOL    HW1 3758   0.520   2.198   3.370
 1142SOL    HW2 3759   0.357   2.196   3.365
 1143SOL     OW 3760   1.603   2.309   2.599
 1143SOL    HW1 3761   1.529   2.355   2.549
 1143SOL    HW2 3762   1.654   2.377   2.652
 1144SOL     OW 3763   0.231   3.575   2.345
 1144SOL    HW1 3764   0.265   3.652   2.399
 1144SOL    HW2 3765   0.275   3.575   2.255
 1145SOL     OW 3766   1.127   3.203   3.552
 1145SOL    HW1 3767   1.174   3.203   3.640
 1145SOL    HW2 3768   1.079   3.116   3.541
 1146SOL     OW 3769   0.230   3.296   2.400
 1146SOL    HW1 3770   0.204   3.392   2.400
 1146SOL    HW2 3771   0.159   3.242   2.445
 1147SOL     OW 3772   0.240   2.953   2.748
 1147SOL    HW1 3773   0.254   2.869   2.800
 1147SOL    HW2 3774   0.185   3.017   2.803
 1148SOL     OW 3775   0.620   3.648   3.301
 1148SOL    HW1 3776   0.528   3.631   3.336
 1148SOL    HW2 3777   0.648   3.740   3.327
 1149SOL     OW 3778   0.606   2.826   1.985
 1149SOL    HW1 3779   0.613   2.910   1.931
 1149SOL    HW2 3780   0.652   2.839   2.073
 1150SOL     OW 3781   1.594   1.976   3.342
 1150SOL    HW1 3782   1.576   2.043   3.270
 1150SOL    HW2 3783   1.591   2.022   3.431
 1151SOL     OW 3784   0.122   2.505   2.425
 1151SOL    HW1 3785   0.077   2.417   2.442
 1151SOL    HW2 3786   0.121   2.559   2.509
 1152SOL     OW 3787   1.842   3.629   2.221
 1152SOL    HW1 3788   1.896   3.600   2.301
 1152SOL    HW2 3789   1.872   3.719   2.192
 1153SOL     OW 3790   0.027   3.458   1.979
 1153SOL    HW1 3791   0.008   3.362   2.000
 1153SOL    HW2 3792  -0.006   3.516   2.054
 1154SOL     OW 3793   1.689   2.784   2.474
 1154SOL    HW1 3794   1.784   2.755   2.482
 1154SOL    HW2 3795   1.681   2.849   2.399
 1155SOL     OW 3796   1.641   2.970   2.294
 1155SOL    HW1 3797   1.727   2.972   2.242
 1155SOL    HW2 3798   1.655   3.017   2.382
 1156SOL     OW 3799   0.113   2.599   3.459
 1156SOL    HW1 3800   0.201   2.586   3.504
 1156SOL    HW2 3801   0.100   2.696   3.437
 1157SOL     OW 3802   0.613   3.227   2.588
 1157SOL    HW1 3803   0.564   3.140   2.597
 1157SOL    HW2 3804   0.590   3.270   2.501
 1158SOL     OW 3805   1.293   3.090   3.285
 1158SOL    HW1 3806   1.330   3.017   3.227
 1158SOL    HW2 3807   1.345   3.095   3.370
 1159SOL     OW 3808   0.809   1.866   2.364
 1159SOL    HW1 3809   0.849   1.957   2.355
 1159SOL    HW2 3810   0.709   1.874   2.370
 1160SOL     OW 3811   0.197   2.838   3.126
 1160SOL    HW1 3812   0.286   2.793   3.112
 1160SOL    HW2 3813   0.124   2.773   3.107
 1161SOL     OW 3814   1.525   2.861   2.052
 1161SOL    HW1 3815   1.462   2.785   2.065
 1161SOL    HW2 3816   1.573   2.879   2.138
 1162SOL     OW 3817   1.187   3.654   3.478
 1162SOL    HW1 3818   1.211   3.714   3.402
 1162SOL    HW2 3819   1.194   3.559   3.448
 1163SOL     OW 3820   0.317   2.113   3.663
 1163SOL    HW1 3821   0.388   2.184   3.669
 1163SOL    HW2 3822   0.229   2.152   3.691
 1164SOL     OW 3823   1.466   3.279   2.815
 1164SOL    HW1 3824   1.407   3.285   2.895
 1164SOL    HW2 3825   1.451   3.191   2.769
 1165SOL     OW 3826   1.667   3.576   2.434
 1165SOL    HW1 3827   1.626   3.553   2.346
 1165SOL    HW2 3828   1.649   3.502   2.499
 1166SOL     OW 3829   0.598   2.591   2.132
 1166SOL    HW1 3830   0.622   2.660   2.064
 1166SOL    HW2 3831   0.520   2.624   2.186
 1167SOL     OW 3832   1.281   2.207   2.806
 1167SOL    HW1 3833   1.195   2.157   2.793
 1167SOL    HW2 3834   1.343   2.153   2.862
 1168SOL     OW 3835   1.576   3.524   2.169
 1168SOL    HW1 3836   1.665   3.570   2.172
 1168SOL    HW2 3837   1.555   3.500   2.074
 1169SOL     OW 3838   0.807   2.467   3.327
 1169SOL    HW1 3839   0.760   2.464   3.416
 1169SOL    HW2 3840   0.756   2.412   3.261
 1170SOL     OW 3841   1.394   2.331   3.536
 1170SOL    HW1 3842   1.374   2.374   3.624
 1170SOL    HW2 3843   1.472   2.269   3.545
 1171SOL     OW 3844   0.973   2.752   3.434
 1171SOL    HW1 3845   1.019   2.668   3.405
 1171SOL    HW2 3846   0.917   2.786   3.359
 1172SOL     OW 3847   0.991   2.272   3.104
 1172SOL    HW1 3848   0.914   2.306   3.158
 1172SOL    HW2 3849   0.957   2.221   3.025
 1173SOL     OW 3850   1.041   2.563   2.291
 1173SOL    HW1 3851   1.067   2.559   2.387
 1173SOL    HW2 3852   0.956   2.512   2.277
 1174SOL     OW 3853   0.076   2.673   2.651
 1174SOL    HW1 3854   0.175   2.661   2.660
 1174SOL    HW2 3855   0.052   2.768   2.672
 1175SOL     OW 3856   0.130   3.683   3.433
 1175SOL    HW1 3857   0.120   3.668   3.532
 1175SOL    HW2 3858   0.044   3.719   3.397
 1176SOL     OW 3859   0.865   2.210   2.057
 1176SOL    HW1 3860   0.924   2.273   2.008
 1176SOL    HW2 3861   0.884   2.116   2.028
 1177SOL     OW 3862   1.719   2.447   3.693
 1177SOL    HW1 3863   1.693   2.536   3.657
 1177SOL    HW2 3864   1.717   2.379   3.620
 1178SOL     OW 3865   1.362   3.006   2.407
 1178SOL    HW1 3866   1.445   2.977   2.359
 1178SOL    HW2 3867   1.313   3.073   2.351
 1179SOL     OW 3868   0.550   2.058   2.747
 1179SOL    HW1 3869   0.545   2.053   2.847
 1179SOL    HW2 3870   0.552   2.154   2.718
 1180SOL     OW 3871   1.008   3.318   2.339
 1180SOL    HW1 3872   0.962   3.390   2.287
 1180SOL    HW2 3873   1.004   3.338   2.437
 1181SOL     OW 3874   0.351   3.663   2.715
 1181SOL    HW1 3875   0.401   3.577   2.721
 1181SOL    HW2 3876   0.416   3.740   2.712
 1182SOL     OW 3877   1.795   2.928   2.735
 1182SOL    HW1 3878   1.733   2.913   2.659
 1182SOL    HW2 3879   1.743   2.939   2.820
 1183SOL     OW 3880   1.227   3.412   3.368
 1183SOL    HW1 3881   1.233   3.335   3.432
 1183SOL    HW2 3882   1.175   3.386   3.288
 1184SOL     OW 3883   0.321   2.805   2.104
 1184SOL    HW1 3884   0.403   2.844   2.062
 1184SOL    HW2 3885   0.294   2.723   2.055
 1185SOL     OW 3886   1.458   2.597   2.590
 1185SOL    HW1 3887   1.453   2.532   2.665
 1185SOL    HW2 3888   1.538   2.656   2.603
 1186SOL     OW 3889   0.461   3.128   3.589
 1186SOL    HW1 3890   0.411   3.129   3.503
 1186SOL    HW2 3891   0.398   3.110   3.665
 1187SOL     OW 3892   1.111   3.638   2.099
 1187SOL    HW1 3893   1.051   3.576   2.149
 1187SOL    HW2 3894   1.142   3.594   2.014
 1188SOL     OW 3895   0.202   2.147   3.360
 1188SOL    HW1 3896   0.122   2.207   3.347
 1188SOL    HW2 3897   0.192   2.098   3.446
 1189SOL     OW 3898   1.632   3.239   1.943
 1189SOL    HW1 3899   1.600   3.333   1.933
 1189SOL    HW2 3900   1.556   3.176   1.931
 1190SOL     OW 3901   0.464   3.605   2.185
 1190SOL    HW1 3902   0.497   3.644   2.271
 1190SOL    HW2 3903   0.540   3.598   2.120
 1191SOL     OW 3904   1.400   1.969   2.288
 1191SOL    HW1 3905   1.376   1.932   2.198
 1191SOL    HW2 3906   1.499   1.985   2.292
 1192SOL     OW 3907   0.249   3.647   3.103
 1192SOL    HW1 3908   0.306   3.582   3.153
 1192SOL    HW2 3909   0.233   3.614   3.010
 1193SOL     OW 3910   0.940   3.560   2.766
 1193SOL    HW1 3911   1.020   3.503   2.787
 1193SOL    HW2 3912   0.891   3.520   2.689
 1194SOL     OW 3913   0.382   2.562   2.342
 1194SOL    HW1 3914   0.427   2.472   2.339
 1194SOL    HW2 3915   0.288   2.551   2.375
 1195SOL     OW 3916   1.547   2.084   3.591
 1195SOL    HW1 3917   1.542   2.121   3.683
 1195SOL    HW2 3918   1.475   2.015   3.579
 1196SOL     OW 3919   0.614   1.984   1.979
 1196SOL    HW1 3920   0.712   1.962   1.986
 1196SOL    HW2 3921   0.583   1.967   1.886
 1197SOL     OW 3922   0.781   2.126   3.611
 1197SOL    HW1 3923   0.848   2.065   3.654
 1197SOL    HW2 3924   0.708   2.145   3.676
 1198SOL     OW 3925   0.888   3.376   3.057
 1198SOL    HW1 3926   0.865   3.351   2.963
 1198SOL    HW2 3927   0.949   3.307   3.096
 1199SOL     OW 3928   1.351   2.452   3.295
 1199SOL    HW1 3929   1.379   2.409   3.380
 1199SOL    HW2 3930   1.376   2.548   3.296
 1200SOL     OW 3931   0.803   3.264   2.786
 1200SOL    HW1 3932   0.893   3.278   2.744
 1200SOL    HW2 3933   0.732   3.266   2.715
 1201SOL     OW 3934   0.922   2.365   2.761
 1201SOL    HW1 3935   0.897   2.356   2.665
 1201SOL    HW2 3936   0.970   2.283   2.792
 1202SOL     OW 3937   0.539   1.926   2.374
 1202SOL    HW1 3938   0.458   1.927   2.432
 1202SOL    HW2 3939   0.542   2.009   2.319
 1203SOL     OW 3940   1.434   3.050   1.903
 1203SOL    HW1 3941   1.466   2.974   1.960
 1203SOL    HW2 3942   1.342   3.077   1.933
 1204SOL     OW 3943   0.297   1.897   2.033
 1204SOL    HW1 3944   0.346   1.981   2.012
 1204SOL    HW2 3945   0.359   1.832   2.078
 1205SOL     OW 3946   0.935   2.098   2.342
 1205SOL    HW1 3947   0.887   2.139   2.264
 1205SOL    HW2 3948   1.034   2.096   2.323
 1206SOL     OW 3949   1.076   2.545   3.326
 1206SOL    HW1 3950   0.996   2.484   3.329
 1206SOL    HW2 3951   1.157   2.492   3.302
 1207SOL     OW 3952   1.227   3.432   2.655
 1207SOL    HW1 3953   1.248   3.506   2.590
 1207SOL    HW2 3954   1.295   3.432   2.728
 1208SOL     OW 3955   0.459   3.014   2.603
 1208SOL    HW1 3956   0.388   2.987   2.668
 1208SOL    HW2 3957   0.433   2.986   2.510
 1209SOL     OW 3958   1.271   3.659   2.453
 1209SOL    HW1 3959   1.315   3.723   2.389
 1209SOL    HW2 3960   1.221   3.711   2.523
 1210SOL     OW 3961   1.032   2.411   1.878
 1210SOL    HW1 3962   0.991   2.493   1.839
 1210SOL    HW2 3963   1.096   2.437   1.951
 1211SOL     OW 3964   0.078   2.418   3.248
 1211SOL    HW1 3965   0.170   2.417   3.207
 1211SOL    HW2 3966   0.072   2.492   3.315
 1212SOL     OW 3967   0.561   2.084   3.009
 1212SOL    HW1 3968   0.599   2.000   3.046
 1212SOL    HW2 3969   0.473   2.103   3.053
 1213SOL     OW 3970   0.866   2.316   2.504
 1213SOL    HW1 3971   0.834   2.388   2.442
 1213SOL    HW2 3972   0.890   2.235   2.451
 1214SOL     OW 3973   1.017   1.901   2.615
 1214SOL    HW1 3974   0.945   1.906   2.546
 1214SOL    HW2 3975   0.993   1.832   2.684
 1215SOL     OW 3976   1.429   3.035   2.729
 1215SOL    HW1 3977   1.374   2.951   2.722
 1215SOL    HW2 3978   1.455   3.064   2.637
 1216SOL     OW 3979   1.466   2.452   2.854
 1216SOL    HW1 3980   1.436   2.357   2.861
 1216SOL    HW2 3981   1.539   2.468   2.920
 1217SOL     OW 3982   1.857   2.695   2.239
 1217SOL    HW1 3983   1.899   2.631   2.303
 1217SOL    HW2 3984   1.819   2.644   2.161
 1218SOL     OW 3985   0.488   3.247   2.036
 1218SOL    HW1 3986   0.401   3.232   2.083
 1218SOL    HW2 3987   0.471   3.273   1.941
 1219SOL     OW 3988   1.664   3.142   2.519
 1219SOL    HW1 3989   1.763   3.150   2.533
 1219SOL    HW2 3990   1.619   3.226   2.550
 1220SOL     OW 3991   1.390   2.437   1.940
 1220SOL    HW1 3992   1.336   2.416   2.021
 1220SOL    HW2 3993   1.481   2.396   1.949
 1221SOL     OW 3994   0.527   2.118   2.190
 1221SOL    HW1 3995   0.554   2.059   2.115
 1221SOL    HW2 3996   0.527   2.213   2.159
 1222SOL     OW 3997   1.754   3.085   3.450
 1222SOL    HW1 3998   1.845   3.046   3.437
 1222SOL    HW2 3999   1.762   3.181   3.474
 1223SOL     OW 4000   1.064   3.209   3.202
 1223SOL    HW1 4001   0.984   3.186   3.257
 1223SOL    HW2 4002   1.147   3.183   3.251
 1224SOL     OW 4003   1.592   3.491   3.487
 1224SOL    HW1 4004   1.619   3.525   3.397
 1224SOL    HW2 4005   1.671   3.453   3.533
 1225SOL     OW 4006   1.111   3.057   2.962
 1225SOL    HW1 4007   1.071   3.101   3.043
 1225SOL    HW2 4008   1.070   3.094   2.879
 1226SOL     OW 4009   1.638   2.961   2.941
 1226SOL    HW1 4010   1.643   3.042   3.000
 1226SOL    HW2 4011   1.552   2.963   2.890
 1227SOL     OW 4012   0.915   1.951   3.264
 1227SOL    HW1 4013   0.940   1.931   3.169
 1227SOL    HW2 4014   0.987   2.007   3.306
 1228SOL     OW 4015   0.980   2.978   3.581
 1228SOL    HW1 4016   0.881   2.984   3.591
 1228SOL    HW2 4017   1.003   2.898   3.525
 1229SOL     OW 4018   0.705   2.912   2.230
 1229SOL    HW1 4019   0.691   2.919   2.329
 1229SOL    HW2 4020   0.789   2.861   2.212
 1230SOL     OW 4021   0.410   2.675   3.113
 1230SOL    HW1 4022   0.496   2.687   3.163
 1230SOL    HW2 4023   0.368   2.588   3.140
 1231SOL     OW 4024   1.274   2.248   3.124
 1231SOL    HW1 4025   1.295   2.322   3.188
 1231SOL    HW2 4026   1.185   2.265   3.081
 1232SOL     OW 4027   0.064   3.426   3.193
 1232SOL    HW1 4028   0.018   3.508   3.159
 1232SOL    HW2 4029   0.162   3.445   3.202
 1233SOL     OW 4030   0.367   2.962   2.363
 1233SOL    HW1 4031   0.360   3.045   2.307
 1233SOL    HW2 4032   0.371   2.882   2.303
 1234SOL     OW 4033   0.566   2.399   2.727
 1234SOL    HW1 4034   0.578   2.465   2.653
 1234SOL    HW2 4035   0.612   2.433   2.810
 1235SOL     OW 4036   1.252   3.210   2.250
 1235SOL    HW1 4037   1.302   3.287   2.290
 1235SOL    HW2 4038   1.157   3.212   2.282
 1236SOL     OW 4039   1.272   3.307   3.004
 1236SOL    HW1 4040   1.319   3.320   3.091
 1236SOL    HW2 4041   1.206   3.233   3.013
 1237SOL     OW 4042   1.582   2.501   2.334
 1237SOL    HW1 4043   1.551   2.562   2.407
 1237SOL    HW2 4044   1.632   2.553   2.265
 1238SOL     OW 4045   0.354   3.372   3.191
 1238SOL    HW1 4046   0.333   3.328   3.104
 1238SOL    HW2 4047   0.451   3.398   3.194
 1239SOL     OW 4048   0.402   2.613   3.460
 1239SOL    HW1 4049   0.470   2.668   3.413
 1239SOL    HW2 4050   0.442   2.525   3.487
 1240SOL     OW 4051   1.587   2.641   3.532
 1240SOL    HW1 4052   1.495   2.679   3.527
 1240SOL    HW2 4053   1.647   2.688   3.467
 1241SOL     OW 4054   1.013   1.967   3.632
 1241SOL    HW1 4055   1.019   2.052   3.580
 1241SOL    HW2 4056   1.045   1.891   3.575
 1242SOL     OW 4057   0.504   1.912   3.602
 1242SOL    HW1 4058   0.462   1.855   3.532
 1242SOL    HW2 4059   0.438   1.981   3.634
 1243SOL     OW 4060   0.573   2.732   2.891
 1243SOL    HW1 4061   0.617   2.821   2.882
 1243SOL    HW2 4062   0.510   2.732   2.968
 1244SOL     OW 4063   1.360   2.724   2.907
 1244SOL    HW1 4064   1.285   2.724   2.841
 1244SOL    HW2 4065   1.397   2.632   2.916
 1245SOL     OW 4066   1.209   2.387   2.137
 1245SOL    HW1 4067   1.222   2.303   2.191
 1245SOL    HW2 4068   1.180   2.461   2.197
 1246SOL     OW 4069   0.307   2.075   3.093
 1246SOL    HW1 4070   0.284   2.112   3.183
 1246SOL    HW2 4071   0.277   1.980   3.087
 1247SOL     OW 4072   0.037   3.172   3.144
 1247SOL    HW1 4073   0.090   3.123   3.212
 1247SOL    HW2 4074   0.059   3.270   3.149
 1248SOL     OW 4075   0.732   2.496   2.926
 1248SOL    HW1 4076   0.791   2.470   2.850
 1248SOL    HW2 4077   0.704   2.592   2.915
 1249SOL     OW 4078   1.728   2.797   3.716
 1249SOL    HW1 4079   1.682   2.790   3.627
 1249SOL    HW2 4080   1.666   2.841   3.782
 1250SOL     OW 4081   0.307   1.925   2.480
 1250SOL    HW1 4082   0.296   2.019   2.513
 1250SOL    HW2 4083   0.302   1.862   2.557
 1251SOL     OW 4084   1.622   2.229   2.236
 1251SOL    HW1 4085   1.624   2.153   2.300
 1251SOL    HW2 4086   1.574   2.306   2.276
 1252SOL     OW 4087   1.023   2.628   2.828
 1252SOL    HW1 4088   1.038   2.649   2.924
 1252SOL    HW2 4089   0.993   2.533   2.819
 1253SOL     OW 4090   0.980   3.435   3.562
 1253SOL    HW1 4091   0.960   3.479   3.474
 1253SOL    HW2 4092   1.019   3.344   3.546
 1254SOL     OW 4093   1.859   3.380   3.467
 1254SOL    HW1 4094   1.873   3.407   3.372
 1254SOL    HW2 4095   1.942   3.402   3.520
 1255SOL     OW 4096   0.350   2.760   3.666
 1255SOL    HW1 4097   0.426   2.804   3.714
 1255SOL    HW2 4098   0.385   2.713   3.584
 1256SOL     OW 4099   1.540   2.136   1.987
 1256SOL    HW1 4100   1.479   2.061   2.010
 1256SOL    HW2 4101   1.562   2.188   2.070
 1257SOL     OW 4102   1.303   2.700   1.904
 1257SOL    HW1 4103   1.337   2.607   1.919
 1257SOL    HW2 4104   1.321   2.727   1.809
 1258SOL     OW 4105   1.068   3.195   2.711
 1258SOL    HW1 4106   1.075   3.111   2.656
 1258SOL    HW2 4107   1.130   3.264   2.675
 1259SOL     OW 4108   0.319   2.672   2.811
 1259SOL    HW1 4109   0.412   2.708   2.816
 1259SOL    HW2 4110   0.313   2.587   2.863
 1260SOL     OW 4111   0.339   2.371   2.868
 1260SOL    HW1 4112   0.287   2.288   2.851
 1260SOL    HW2 4113   0.416   2.376   2.804
 1261SOL     OW 4114   1.138   2.242   3.540
 1261SOL    HW1 4115   1.093   2.305   3.604
 1261SOL    HW2 4116   1.231   2.273   3.523
 1262SOL     OW 4117   1.160   2.069   3.339
 1262SOL    HW1 4118   1.160   2.133   3.416
 1262SOL    HW2 4119   1.188   2.117   3.256
 1263SOL     OW 4120   0.008   3.188   2.062
 1263SOL    HW1 4121  -0.085   3.209   2.031
 1263SOL    HW2 4122   0.018   3.089   2.075
 1264SOL     OW 4123   0.088   3.663   2.789
 1264SOL    HW1 4124   0.046   3.577   2.762
 1264SOL    HW2 4125   0.182   3.666   2.755
 1265SOL     OW 4126   0.504   3.430   2.772
 1265SOL    HW1 4127   0.570   3.504   2.781
 1265SOL    HW2 4128   0.548   3.351   2.730
 1266SOL     OW 4129   1.002   2.658   3.100
 1266SOL    HW1 4130   1.043   2.626   3.186
 1266SOL    HW2 4131   0.906   2.631   3.097
 1267SOL     OW 4132   0.040   2.406   2.976
 1267SOL    HW1 4133   0.125   2.373   2.935
 1267SOL    HW2 4134   0.053   2.421   3.074
 1268SOL     OW 4135   0.189   2.382   3.584
 1268SOL    HW1 4136   0.248   2.342   3.514
 1268SOL    HW2 4137   0.131   2.453   3.543
 1269SOL     OW 4138   1.369   2.812   3.522
 1269SOL    HW1 4139   1.408   2.901   3.542
 1269SOL    HW2 4140   1.379   2.792   3.425
 1270SOL     OW 4141   0.815   2.434   2.187
 1270SOL    HW1 4142   0.822   2.345   2.141
 1270SOL    HW2 4143   0.721   2.468   2.179
 1271SOL     OW 4144   1.657   2.466   3.068
 1271SOL    HW1 4145   1.619   2.397   3.130
 1271SOL    HW2 4146   1.739   2.430   3.024
 1272SOL     OW 4147   0.252   3.426   3.606
 1272SOL    HW1 4148   0.222   3.483   3.682
 1272SOL    HW2 4149   0.245   3.329   3.632
 1273SOL     OW 4150   0.671   2.326   3.131
 1273SOL    HW1 4151   0.637   2.237   3.101
 1273SOL    HW2 4152   0.697   2.380   3.051
 1274SOL     OW 4153   0.930   3.540   3.327
 1274SOL    HW1 4154   0.906   3.522   3.232
 1274SOL    HW2 4155   0.960   3.634   3.337
 1275SOL     OW 4156   0.473   2.362   2.053
 1275SOL    HW1 4157   0.534   2.442   2.057
 1275SOL    HW2 4158   0.378   2.393   2.060
 1276SOL     OW 4159   0.159   2.999   3.328
 1276SOL    HW1 4160   0.181   2.938   3.404
 1276SOL    HW2 4161   0.169   2.950   3.242
 1277SOL     OW 4162   1.347   2.921   3.096
 1277SOL    HW1 4163   1.371   2.858   3.022
 1277SOL    HW2 4164   1.257   2.961   3.078
 1278SOL     OW 4165   1.302   2.717   2.171
 1278SOL    HW1 4166   1.216   2.686   2.213
 1278SOL    HW2 4167   1.298   2.703   2.072
 1279SOL     OW 4168   1.759   3.609   3.016
 1279SOL    HW1 4169   1.820   3.639   2.943
 1279SOL    HW2 4170   1.721   3.520   2.994
 1280SOL     OW 4171   1.252   3.593   2.990
 1280SOL    HW1 4172   1.336   3.598   2.936
 1280SOL    HW2 4173   1.229   3.497   3.008
 1281SOL     OW 4174   0.083   3.120   2.884
 1281SOL    HW1 4175   0.078   3.119   2.984
 1281SOL    HW2 4176   0.000   3.079   2.846
 1282SOL     OW 4177   0.688   3.524   3.578
 1282SOL    HW1 4178   0.632   3.605   3.587
 1282SOL    HW2 4179   0.740   3.528   3.492
 1283SOL     OW 4180   1.726   1.997   2.385
 1283SOL    HW1 4181   1.799   1.980   2.318
 1283SOL    HW2 4182   1.695   1.910   2.423
 1284SOL     OW 4183   1.388   3.435   2.339
 1284SOL    HW1 4184   1.455   3.447   2.265
 1284SOL    HW2 4185   1.348   3.524   2.362
 1285SOL     OW 4186   0.130   3.656   3.713
 1285SOL    HW1 4187   0.089   3.582   3.766
 1285SOL    HW2 4188   0.194   3.707   3.771
 1286SOL     OW 4189   1.280   2.789   2.534
 1286SOL    HW1 4190   1.340   2.708   2.536
 1286SOL    HW2 4191   1.320   2.858   2.474
 1287SOL     OW 4192   0.830   3.135   3.284
 1287SOL    HW1 4193   0.825   3.168   3.379
 1287SOL    HW2 4194   0.744   3.154   3.238
 1288SOL     OW 4195   0.672   3.478   2.016
 1288SOL    HW1 4196   0.681   3.488   1.917
 1288SOL    HW2 4197   0.632   3.389   2.037
 1289SOL     OW 4198   1.650   3.582   3.256
 1289SOL    HW1 4199   1.703   3.592   3.172
 1289SOL    HW2 4200   1.623   3.672   3.290
 1290SOL     OW 4201   1.841   2.037   2.825
 1290SOL    HW1 4202   1.880   1.952   2.789
 1290SOL    HW2 4203   1.743   2.039   2.806
 1291SOL     OW 4204   0.263   2.188   2.582
 1291SOL    HW1 4205   0.184   2.239   2.548
 1291SOL    HW2 4206   0.254   2.173   2.680
 1292SOL     OW 4207   1.194   3.474   1.893
 1292SOL    HW1 4208   1.200   3.381   1.930
 1292SOL    HW2 4209   1.135   3.474   1.813
 1293SOL     OW 4210   0.822   2.864   3.234
 1293SOL    HW1 4211   0.862   2.863   3.142
 1293SOL    HW2 4212   0.832   2.956   3.274
 1294SOL     OW 4213   0.916   2.772   2.153
 1294SOL    HW1 4214   0.979   2.810   2.085
 1294SOL    HW2 4215   0.956   2.689   2.192
 1295SOL     OW 4216   1.504   3.469   1.906
 1295SOL    HW1 4217   1.412   3.506   1.913
 1295SOL    HW2 4218   1.542   3.489   1.816
 1296SOL     OW 4219   0.372   3.150   3.352
 1296SOL    HW1 4220   0.359   3.243   3.318
 1296SOL    HW2 4221   0.288   3.098   3.339
 1297SOL     OW 4222   1.614   3.154   3.151
 1297SOL    HW1 4223   1.674   3.157   3.231
 1297SOL    HW2 4224   1.539   3.218   3.164
 1298SOL     OW 4225   1.039   2.960   2.558
 1298SOL    HW1 4226   0.969   2.913   2.612
 1298SOL    HW2 4227   1.098   2.892   2.515
 1299SOL     OW 4228   1.014   2.098   2.833
 1299SOL    HW1 4229   1.006   2.062   2.740
 1299SOL    HW2 4230   1.012   2.022   2.898
 1300SOL     OW 4231   0.590   3.349   2.353
 1300SOL    HW1 4232   0.632   3.291   2.283
 1300SOL    HW2 4233   0.546   3.428   2.309
 1301SOL     OW 4234   1.709   2.247   3.243
 1301SOL    HW1 4235   1.782   2.316   3.247
 1301SOL    HW2 4236   1.737   2.172   3.184
 1302SOL     OW 4237   0.255   3.210   2.152
 1302SOL    HW1 4238   0.159   3.211   2.125
 1302SOL    HW2 4239   0.267   3.263   2.236
 1303SOL     OW 4240   0.105   2.875   3.588
 1303SOL    HW1 4241   0.028   2.842   3.642
 1303SOL    HW2 4242   0.190   2.845   3.630
 1304SOL     OW 4243   0.672   2.065   3.351
 1304SOL    HW1 4244   0.762   2.049   3.311
 1304SOL    HW2 4245   0.680   2.070   3.450
 1305SOL     OW 4246   0.075   2.207   1.895
 1305SOL    HW1 4247  -0.017   2.179   1.866
 1305SOL    HW2 4248   0.106   2.284   1.839
 1306SOL     OW 4249   1.440   2.718   3.260
 1306SOL    HW1 4250   1.383   2.770   3.197
 1306SOL    HW2 4251   1.536   2.730   3.236
 1307SOL     OW 4252   0.072   2.028   2.180
 1307SOL    HW1 4253   0.055   2.111   2.126
 1307SOL    HW2 4254   0.162   1.991   2.158
 1308SOL     OW 4255   1.183   3.197   1.981
 1308SOL    HW1 4256   1.084   3.186   1.983
 1308SOL    HW2 4257   1.217   3.212   2.074
 1309SOL     OW 4258   0.613   2.704   3.293
 1309SOL    HW1 4259   0.669   2.785   3.276
 1309SOL    HW2 4260   0.672   2.624   3.296
 1310SOL     OW 4261   1.493   3.629   2.821
 1310SOL    HW1 4262   1.526   3.693   2.752
 1310SOL    HW2 4263   1.559   3.623   2.896
 1311SOL     OW 4264   0.716   2.427   3.570
 1311SOL    HW1 4265   0.735   2.492   3.644
 1311SOL    HW2 4266   0.776   2.347   3.579
 1312SOL     OW 4267   1.450   3.082   3.495
 1312SOL    HW1 4268   1.441   3.072   3.594
 1312SOL    HW2 4269   1.546   3.075   3.469
 1313SOL     OW 4270   0.390   3.603   3.422
 1313SOL    HW1 4271   0.299   3.644   3.420
 1313SOL    HW2 4272   0.383   3.509   3.454
 1314SOL     OW 4273   1.674   2.745   3.116
 1314SOL    HW1 4274   1.647   2.656   3.079
 1314SOL    HW2 4275   1.675   2.813   3.043
 1315SOL     OW 4276   1.225   2.187   2.311
 1315SOL    HW1 4277   1.290   2.113   2.300
 1315SOL    HW2 4278   1.245   2.237   2.395
 1316SOL     OW 4279   0.594   2.607   2.514
 1316SOL    HW1 4280   0.644   2.692   2.495
 1316SOL    HW2 4281   0.506   2.609   2.466
 1317SOL     OW 4282   1.777   2.204   3.504
 1317SOL    HW1 4283   1.760   2.235   3.410
 1317SOL    HW2 4284   1.693   2.167   3.542
 1318SOL     OW 4285   1.730   2.796   3.379
 1318SOL    HW1 4286   1.768   2.887   3.394
 1318SOL    HW2 4287   1.722   2.779   3.280
 1319SOL     OW 4288   0.859   3.236   1.878
 1319SOL    HW1 4289   0.813   3.251   1.966
 1319SOL    HW2 4290   0.903   3.321   1.848
 1320SOL     OW 4291   0.661   3.652   2.815
 1320SOL    HW1 4292   0.615   3.740   2.802
 1320SOL    HW2 4293   0.760   3.664   2.808
 1321SOL     OW 4294   0.859   2.818   2.723
 1321SOL    HW1 4295   0.913   2.749   2.771
 1321SOL    HW2 4296   0.827   2.887   2.789
 1322SOL     OW 4297   1.083   2.846   1.949
 1322SOL    HW1 4298   1.060   2.899   1.867
 1322SOL    HW2 4299   1.164   2.790   1.930
 1323SOL     OW 4300   1.861   3.431   2.713
 1323SOL    HW1 4301   1.790   3.419   2.643
 1323SOL    HW2 4302   1.862   3.352   2.773
 1324SOL     OW 4303   0.221   3.176   3.706
 1324SOL    HW1 4304   0.156   3.103   3.685
 1324SOL    HW2 4305   0.225   3.190   3.804
 1325SOL     OW 4306   0.079   3.102   2.515
 1325SOL    HW1 4307   0.078   3.055   2.603
 1325SOL    HW2 4308   0.161   3.074   2.464
 1326SOL     OW 4309   0.672   3.253   3.486
 1326SOL    HW1 4310   0.594   3.203   3.524
 1326SOL    HW2 4311   0.669   3.348   3.517
 1327SOL     OW 4312   1.824   2.054   3.089
 1327SOL    HW1 4313   1.820   1.964   3.133
 1327SOL    HW2 4314   1.827   2.043   2.990
 1328SOL     OW 4315   0.428   2.286   2.382
 1328SOL    HW1 4316   0.458   2.214   2.320
 1328SOL    HW2 4317   0.389   2.246   2.465
 1329SOL     OW 4318   1.705   3.349   2.966
 1329SOL    HW1 4319   1.612   3.324   2.939
 1329SOL    HW2 4320   1.731   3.299   3.048
 1330SOL     OW 4321   0.317   2.409   3.142
 1330SOL    HW1 4322   0.355   2.350   3.214
 1330SOL    HW2 4323   0.357   2.383   3.054
 1331SOL     OW 4324   0.812   3.448   2.549
 1331SOL    HW1 4325   0.844   3.458   2.455
 1331SOL    HW2 4326   0.733   3.386   2.551
 1332SOL     OW 4327   1.424   2.076   2.974
 1332SOL    HW1 4328   1.476   2.011   3.029
 1332SOL    HW2 4329   1.375   2.139   3.035
 1333SOL     OW 4330   1.001   1.896   3.016
 1333SOL    HW1 4331   0.938   1.824   2.985
 1333SOL    HW2 4332   1.094   1.860   3.016
 1334SOL     OW 4333   0.770   3.192   2.163
 1334SOL    HW1 4334   0.724   3.105   2.180
 1334SOL    HW2 4335   0.861   3.189   2.204
 1335SOL     OW 4336   0.618   3.429   3.146
 1335SOL    HW1 4337   0.613   3.511   3.203
 1335SOL    HW2 4338   0.707   3.426   3.101
 1336SOL     OW 4339   1.352   1.914   2.030
 1336SOL    HW1 4340   1.387   1.873   1.946
 1336SOL    HW2 4341   1.262   1.876   2.050
 1337SOL     OW 4342   1.300   2.315   2.553
 1337SOL    HW1 4343   1.241   2.395   2.557
 1337SOL    HW2 4344   1.315   2.280   2.646
 1338SOL     OW 4345   1.593   2.083   2.744
 1338SOL    HW1 4346   1.509   2.082   2.798
 1338SOL    HW2 4347   1.595   2.166   2.688
 1339SOL     OW 4348   0.039   2.939   2.162
 1339SOL    HW1 4349   0.138   2.928   2.153
 1339SOL    HW2 4350  -0.001   2.853   2.194
 1340SOL     OW 4351   0.875   3.508   2.199
 1340SOL    HW1 4352   0.798   3.473   2.145
 1340SOL    HW2 4353   0.843   3.579   2.261
 1341SOL     OW 4354   0.230   2.490   3.837
 1341SOL    HW1 4355   0.137   2.488   3.874
 1341SOL    HW2 4356   0.231   2.451   3.745
 1342SOL     OW 4357   0.225   2.137   4.720
 1342SOL    HW1 4358   0.260   2.120   4.812
 1342SOL    HW2 4359   0.137   2.092   4.708
 1343SOL     OW 4360   0.019   2.230   4.371
 1343SOL    HW1 4361  -0.063   2.273   4.410
 1343SOL    HW2 4362  -0.009   2.157   4.308
 1344SOL     OW 4363   0.569   3.137   4.889
 1344SOL    HW1 4364   0.476   3.130   4.852
 1344SOL    HW2 4365   0.580   3.226   4.933
 1345SOL     OW 4366   1.555   3.373   4.427
 1345SOL    HW1 4367   1.498   3.357   4.508
 1345SOL    HW2 4368   1.496   3.383   4.347
 1346SOL     OW 4369   1.135   2.565   4.441
 1346SOL    HW1 4370   1.192   2.643   4.416
 1346SOL    HW2 4371   1.075   2.591   4.517
 1347SOL     OW 4372   1.755   2.469   3.955
 1347SOL    HW1 4373   1.743   2.456   3.856
 1347SOL    HW2 4374   1.725   2.388   4.004
 1348SOL     OW 4375   0.768   3.006   4.747
 1348SOL    HW1 4376   0.690   3.023   4.807
 1348SOL    HW2 4377   0.802   3.093   4.711
 1349SOL     OW 4378   0.850   2.660   5.547
 1349SOL    HW1 4379   0.846   2.736   5.612
 1349SOL    HW2 4380   0.872   2.696   5.456
 1350SOL     OW 4381   0.685   2.874   4.389
 1350SOL    HW1 4382   0.754   2.858   4.459
 1350SOL    HW2 4383   0.612   2.931   4.427
 1351SOL     OW 4384   0.686   3.023   5.527
 1351SOL    HW1 4385   0.746   3.102   5.541
 1351SOL    HW2 4386   0.600   3.054   5.486
 1352SOL     OW 4387   0.335   3.297   4.785
 1352SOL    HW1 4388   0.257   3.266   4.732
 1352SOL    HW2 4389   0.393   3.355   4.728
 1353SOL     OW 4390   1.460   3.367   5.063
 1353SOL    HW1 4391   1.484   3.461   5.089
 1353SOL    HW2 4392   1.444   3.313   5.145
 1354SOL     OW 4393   0.438   2.254   5.223
 1354SOL    HW1 4394   0.520   2.198   5.232
 1354SOL    HW2 4395   0.357   2.196   5.227
 1355SOL     OW 4396   1.603   2.309   4.461
 1355SOL    HW1 4397   1.529   2.355   4.411
 1355SOL    HW2 4398   1.654   2.377   4.514
 1356SOL     OW 4399   0.231   3.575   4.207
 1356SOL    HW1 4400   0.265   3.652   4.261
 1356SOL    HW2 4401   0.275   3.575   4.117
 1357SOL     OW 4402   1.127   3.203   5.414
 1357SOL    HW1 4403   1.174   3.203   5.502
 1357SOL    HW2 4404   1.079   3.116   5.403
 1358SOL     OW 4405   0.230   3.296   4.262
 1358SOL    HW1 4406   0.204   3.392   4.262
 1358SOL    HW2 4407   0.159   3.242   4.307
 1359SOL     OW 4408   0.240   2.953   4.610
 1359SOL    HW1 4409   0.254   2.869   4.662
 1359SOL    HW2 4410   0.185   3.017   4.665
 1360SOL     OW 4411   0.620   3.648   5.163
 1360SOL    HW1 4412   0.528   3.631   5.198
 1360SOL    HW2 4413   0.648   3.740   5.189
 1361SOL     OW 4414   0.606   2.826   3.847
 1361SOL    HW1 4415   0.613   2.910   3.793
 1361SOL    HW2 4416   0.652   2.839   3.935
 1362SOL     OW 4417   1.594   1.976   5.204
 1362SOL    HW1 4418   1.576   2.043   5.132
 1362SOL    HW2 4419   1.591   2.022   5.293
 1363SOL     OW 4420   0.122   2.505   4.287
 1363SOL    HW1 4421   0.077   2.417   4.304
 1363SOL    HW2 4422   0.121   2.559   4.371
 1364SOL     OW 4423   1.842   3.629   4.083
 1364SOL    HW1 4424   1.896   3.600   4.163
 1364SOL    HW2 4425   1.872   3.719   4.054
 1365SOL     OW 4426   0.027   3.458   3.841
 1365SOL    HW1 4427   0.008   3.362   3.862
 1365SOL    HW2 4428  -0.006   3.516   3.916
 1366SOL     OW 4429   1.689   2.784   4.336
 1366SOL    HW1 4430   1.784   2.755   4.344
 1366SOL    HW2 4431   1.681   2.849   4.261
 1367SOL     OW 4432   1.641   2.970   4.156
 1367SOL    HW1 4433   1.727   2.972   4.104
 1367SOL    HW2 4434   1.655   3.017   4.244
 1368SOL     OW 4435   0.113   2.599   5.321
 1368SOL    HW1 4436   0.201   2.586   5.366
 1368SOL    HW2 4437   0.100   2.696   5.299
 1369SOL     OW 4438   0.613   3.227   4.450
 1369SOL    HW1 4439   0.564   3.140   4.459
 1369SOL    HW2 4440   0.590   3.270   4.363
 1370SOL     OW 4441   1.293   3.090   5.147
 1370SOL    HW1 4442   1.330   3.017   5.089
 1370SOL    HW2 4443   1.345   3.095   5.232
 1371SOL     OW 4444   0.809   1.866   4.226
 1371SOL    HW1 4445   0.849   1.957   4.217
 1371SOL    HW2 4446   0.709   1.874   4.232
 1372SOL     OW 4447   0.197   2.838   4.988
 1372SOL    HW1 4448   0.286   2.793   4.974
 1372SOL    HW2 4449   0.124   2.773   4.969
 1373SOL     OW 4450   1.525   2.861   3.914
 1373SOL    HW1 4451   1.462   2.785   3.927
 1373SOL    HW2 4452   1.573   2.879   4.000
 1374SOL     OW 4453   1.187   3.654   5.340
 1374SOL    HW1 4454   1.211   3.714   5.264
 1374SOL    HW2 4455   1.194   3.559   5.310
 1375SOL     OW 4456   0.317   2.113   5.525
 1375SOL    HW1 4457   0.388   2.184   5.531
 1375SOL    HW2 4458   0.229   2.152   5.553
 1376SOL     OW 4459   1.466   3.279   4.677
 1376SOL    HW1 4460   1.407   3.285   4.757
 1376SOL    HW2 4461   1.451   3.191   4.631
 1377SOL     OW 4462   1.667   3.576   4.296
 1377SOL    HW1 4463   1.626   3.553   4.208
 1377SOL    HW2 4464   1.649   3.502   4.361
 1378SOL     OW 4465   0.598   2.591   3.994
 1378SOL    HW1 4466   0.622   2.660   3.926
 1378SOL    HW2 4467   0.520   2.624   4.048
 1379SOL     OW 4468   1.281   2.207   4.668
 1379SOL    HW1 4469   1.195   2.157   4.655
 1379SOL    HW2 4470   1.343   2.153   4.724
 1380SOL     OW 4471   1.576   3.524   4.031
 1380SOL    HW1 4472   1.665   3.570   4.034
 1380SOL    HW2 4473   1.555   3.500   3.936
 1381SOL     OW 4474   0.807   2.467   5.189
 1381SOL    HW1 4475   0.760   2.464   5.278
 1381SOL    HW2 4476   0.756   2.412   5.123
 1382SOL     OW 4477   1.394   2.331   5.398
 1382SOL    HW1 4478   1.374   2.374   5.486
 1382SOL    HW2 4479   1.472   2.269   5.407
 1383SOL     OW 4480   0.973   2.752   5.296
 1383SOL    HW1 4481   1.019   2.668   5.267
 1383SOL    HW2 4482   0.917   2.786   5.221
 1384SOL     OW 4483   0.991   2.272   4.966
 1384SOL    HW1 4484   0.914   2.306   5.020
 1384SOL    HW2 4485   0.957   2.221   4.887
 1385SOL     OW 4486   1.041   2.563   4.153
 1385SOL    HW1 4487   1.067   2.559   4.249
 1385SOL    HW2 4488   0.956   2.512   4.139
 1386SOL     OW 4489   0.076   2.673   4.513
 1386SOL    HW1 4490   0.175   2.661   4.522
 1386SOL    HW2 4491   0.052   2.768   4.534
 1387SOL     OW 4492   0.130   3.683   5.295
 1387SOL    HW1 4493   0.120   3.668   5.394
 1387SOL    HW2 4494   0.044   3.719   5.259
 1388SOL     OW 4495   0.865   2.210   3.919
 1388SOL    HW1 4496   0.924   2.273   3.870
 1388SOL    HW2 4497   0.884   2.116   3.890
 1389SOL     OW 4498   1.719   2.447   5.555
 1389SOL    HW1 4499   1.693   2.536   5.519
 1389SOL    HW2 4500   1.717   2.379   5.482
 1390SOL     OW 4501   1.362   3.006   4.269
 1390SOL    HW1 4502   1.445   2.977   4.221
 1390SOL    HW2 4503   1.313   3.073   4.213
 1391SOL     OW 4504   0.550   2.058   4.609
 1391SOL    HW1 4505   0.545   2.053   4.709
 1391SOL    HW2 4506   0.552   2.154   4.580
 1392SOL     OW 4507   1.008   3.318   4.201
 1392SOL    HW1 4508   0.962   3.390   4.149
 1392SOL    HW2 4509   1.004   3.338   4.299
 1393SOL     OW 4510   0.351   3.663   4.577
 1393SOL    HW1 4511   0.401   3.577   4.583
 1393SOL    HW2 4512   0.416   3.740   4.574
 1394SOL     OW 4513   1.795   2.928   4.597
 1394SOL    HW1 4514   1.733   2.913   4.521
 1394SOL    HW2 4515   1.743   2.939   4.682
 1395SOL     OW 4516   1.227   3.412   5.230
 1395SOL    HW1 4517   1.233   3.335   5.294
 1395SOL    HW2 4518   1.175   3.386   5.150
 1396SOL     OW 4519   0.321   2.805   3.966
 1396SOL    HW1 4520   0.403   2.844   3.924
 1396SOL    HW2 4521   0.294   2.723   3.917
 1397SOL     OW 4522   1.458   2.597   4.452
 1397SOL    HW1 4523   1.453   2.532   4.527
 1397SOL    HW2 4524   1.538   2.656   4.465
 1398SOL     OW 4525   0.461   3.128   5.451
 1398SOL    HW1 4526   0.411   3.129   5.365
 1398SOL    HW2 4527   0.398   3.110   5.527
 1399SOL     OW 4528   1.111   3.638   3.961
 1399SOL    HW1 4529   1.051   3.576   4.011
 1399SOL    HW2 4530   1.142   3.594   3.876
 1400SOL     OW 4531   0.202   2.147   5.222
 1400SOL    HW1 4532   0.122   2.207   5.209
 1400SOL    HW2 4533   0.192   2.098   5.308
 1401SOL     OW 4534   1.632   3.239   3.805
 1401SOL    HW1 4535   1.600   3.333   3.795
 1401SOL    HW2 4536   1.556   3.176   3.793
 1402SOL     OW 4537   0.464   3.605   4.047
 1402SOL    HW1 4538   0.497   3.644   4.133
 1402SOL    HW2 4539   0.540   3.598   3.982
 1403SOL     OW 4540   1.400   1.969   4.150
 1403SOL    HW1 4541   1.376   1.932   4.060
 1403SOL    HW2 4542   1.499   1.985   4.154
 1404SOL     OW 4543   0.249   3.647   4.965
 1404SOL    HW1 4544   0.306   3.582   5.015
 1404SOL    HW2 4545   0.233   3.614   4.872
 1405SOL     OW 4546   0.940   3.560   4.628
 1405SOL    HW1 4547   1.020   3.503   4.649
 1405SOL    HW2 4548   0.891   3.520   4.551
 1406SOL     OW 4549   0.382   2.562   4.204
 1406SOL    HW1 4550   0.427   2.472   4.201
 1406SOL    HW2 4551   0.288   2.551   4.237
 1407SOL     OW 4552   1.547   2.084   5.453
 1407SOL    HW1 4553   1.542   2.121   5.545
 1407SOL    HW2 4554   1.475   2.015   5.441
 1408SOL     OW 4555   0.614   1.984   3.841
 1408SOL    HW1 4556   0.712   1.962   3.848
 1408SOL    HW2 4557   0.583   1.967   3.748
 1409SOL     OW 4558   0.781   2.126   5.473
 1409SOL    HW1 4559   0.848   2.065   5.516
 1409SOL    HW2 4560   0.708   2.145   5.538
 1410SOL     OW 4561   0.888   3.376   4.919
 1410SOL    HW1 4562   0.865   3.351   4.825
 1410SOL    HW2 4563   0.949   3.307   4.958
 1411SOL     OW 4564   1.351   2.452   5.157
 1411SOL    HW1 4565   1.379   2.409   5.242
 1411SOL    HW2 4566   1.376   2.548   5.158
 1412SOL     OW 4567   0.803   3.264   4.648
 1412SOL    HW1 4568   0.893   3.278   4.606
 1412SOL    HW2 4569   0.732   3.266   4.577
 1413SOL     OW 4570   0.922   2.365   4.623
 1413SOL    HW1 4571   0.897   2.356   4.527
 1413SOL    HW2 4572   0.970   2.283   4.654
 1414SOL     OW 4573   0.539   1.926   4.236
 1414SOL    HW1 4574   0.458   1.927   4.294
 1414SOL    HW2 4575   0.542   2.009   4.181
 1415SOL     OW 4576   1.434   3.050   3.765
 1415SOL    HW1 4577   1.466   2.974   3.822
 1415SOL    HW2 4578   1.342   3.077   3.795
 1416SOL     OW 4579   0.297   1.897   3.895
 1416SOL    HW1 4580   0.346   1.981   3.874
 1416SOL    HW2 4581   0.359   1.832   3.940
 1417SOL     OW 4582   0.935   2.098   4.204
 1417SOL    HW1 4583   0.887   2.139   4.126
 1417SOL    HW2 4584   1.034   2.096   4.185
 1418SOL     OW 4585   1.076   2.545   5.188
 1418SOL    HW1 4586   0.996   2.484   5.191
 1418SOL    HW2 4587   1.157   2.492   5.164
 1419SOL     OW 4588   1.227   3.432   4.517
 1419SOL    HW1 4589   1.248   3.506   4.452
 1419SOL    HW2 4590   1.295   3.432   4.590
 1420SOL     OW 4591   0.459   3.014   4.465
 1420SOL    HW1 4592   0.388   2.987   4.530
 1420SOL    HW2 4593   0.433   2.986   4.372
 1421SOL     OW 4594   1.271   3.659   4.315
 1421SOL    HW1 4595   1.315   3.723   4.251
 1421SOL    HW2 4596   1.221   3.711   4.385
 1422SOL     OW 4597   1.032   2.411   3.740
 1422SOL    HW1 4598   0.991   2.493   3.701
 1422SOL    HW2 4599   1.096   2.437   3.813
 1423SOL     OW 4600   0.078   2.418   5.110
 1423SOL    HW1 4601   0.170   2.417   5.069
 1423SOL    HW2 4602   0.072   2.492   5.177
 1424SOL     OW 4603   0.561   2.084   4.871
 1424SOL    HW1 4604   0.599   2.000   4.908
 1424SOL    HW2 4605   0.473   2.103   4.915
 1425SOL     OW 4606   0.866   2.316   4.366
 1425SOL    HW1 4607   0.834   2.388   4.304
 1425SOL    HW2 4608   0.890   2.235   4.313
 1426SOL     OW 4609   1.017   1.901   4.477
 1426SOL    HW1 4610   0.945   1.906   4.408
 1426SOL    HW2 4611   0.993   1.832   4.546
 1427SOL     OW 4612   1.429   3.035   4.591
 1427SOL    HW1 4613   1.374   2.951   4.584
 1427SOL    HW2 4614   1.455   3.064   4.499
 1428SOL     OW 4615   1.466   2.452   4.716
 1428SOL    HW1 4616   1.436   2.357   4.723
 1428SOL    HW2 4617   1.539   2.468   4.782
 1429SOL     OW 4618   1.857   2.695   4.101
 1429SOL    HW1 4619   1.899   2.631   4.165
 1429SOL    HW2 4620   1.819   2.644   4.023
 1430SOL     OW 4621   0.488   3.247   3.898
 1430SOL    HW1 4622   0.401   3.232   3.945
 1430SOL    HW2 4623   0.471   3.273   3.803
 1431SOL     OW 4624   1.664   3.142   4.381
 1431SOL    HW1 4625   1.763   3.150   4.395
 1431SOL    HW2 4626   1.619   3.226   4.412
 1432SOL     OW 4627   1.390   2.437   3.802
 1432SOL    HW1 4628   1.336   2.416   3.883
 1432SOL    HW2 4629   1.481   2.396   3.811
 1433SOL     OW 4630   0.527   2.118   4.052
 1433SOL    HW1 4631   0.554   2.059   3.977
 1433SOL    HW2 4632   0.527   2.213   4.021
 1434SOL     OW 4633   1.754   3.085   5.312
 1434SOL    HW1 4634   1.845   3.046   5.299
 1434SOL    HW2 4635   1.762   3.181   5.336
 1435SOL     OW 4636   1.064   3.209   5.064
 1435SOL    HW1 4637   0.984   3.186   5.119
 1435SOL    HW2 4638   1.147   3.183   5.113
 1436SOL     OW 4639   1.592   3.491   5.349
 1436SOL    HW1 4640   1.619   3.525   5.259
 1436SOL    HW2 4641   1.671   3.453   5.395
 1437SOL     OW 4642   1.111   3.057   4.824
 1437SOL    HW1 4643   1.071   3.101   4.905
 1437SOL    HW2 4644   1.070   3.094   4.741
 1438SOL     OW 4645   1.638   2.961   4.803
 1438SOL    HW1 4646   1.643   3.042   4.862
 1438SOL    HW2 4647   1.552   2.963   4.752
 1439SOL     OW 4648   0.915   1.951   5.126
 1439SOL    HW1 4649   0.940   1.931   5.031
 1439SOL    HW2 4650   0.987   2.007   5.168
 1440SOL     OW 4651   0.980   2.978   5.443
 1440SOL    HW1 4652   0.881   2.984   5.453
 1440SOL    HW2 4653   1.003   2.898   5.387
 1441SOL     OW 4654   0.705   2.912   4.092
 1441SOL    HW1 4655   0.691   2.919   4.191
 1441SOL    HW2 4656   0.789   2.861   4.074
 1442SOL     OW 4657   0.410   2.675   4.975
 1442SOL    HW1 4658   0.496   2.687   5.025
 1442SOL    HW2 4659   0.368   2.588   5.002
 1443SOL     OW 4660   1.274   2.248   4.986
 1443SOL    HW1 4661   1.295   2.322   5.050
 1443SOL    HW2 4662   1.185   2.265   4.943
 1444SOL     OW 4663   0.064   3.426   5.055
 1444SOL    HW1 4664   0.018   3.508   5.021
 1444SOL    HW2 4665   0.162   3.445   5.064
 1445SOL     OW 4666   0.367   2.962   4.225
 1445SOL    HW1 4667   0.360   3.045   4.169
 1445SOL    HW2 4668   0.371   2.882   4.165
 1446SOL     OW 4669   0.566   2.399   4.589
 1446SOL    HW1 4670   0.578   2.465   4.515
 1446SOL    HW2 4671   0.612   2.433   4.672
 1447SOL     OW 4672   1.252   3.210   4.112
 1447SOL    HW1 4673   1.302   3.287   4.152
 1447SOL    HW2 4674   1.157   3.212   4.144
 1448SOL     OW 4675   1.272   3.307   4.866
 1448SOL    HW1 4676   1.319   3.320   4.953
 1448SOL    HW2 4677   1.206   3.233   4.875
 1449SOL     OW 4678   1.582   2.501   4.196
 1449SOL    HW1 4679   1.551   2.562   4.269
 1449SOL    HW2 4680   1.632   2.553   4.127
 1450SOL     OW 4681   0.354   3.372   5.053
 1450SOL    HW1 4682   0.333   3.328   4.966
 1450SOL    HW2 4683   0.451   3.398   5.056
 1451SOL     OW 4684   0.402   2.613   5.322
 1451SOL    HW1 4685   0.470   2.668   5.275
 1451SOL    HW2 4686   0.442   2.525   5.349
 1452SOL     OW 4687   1.587   2.641   5.394
 1452SOL    HW1 4688   1.495   2.679   5.389
 1452SOL    HW2 4689   1.647   2.688   5.329
 1453SOL     OW 4690   1.013   1.967   5.494
 1453SOL    HW1 4691   1.019   2.052   5.442
 1453SOL    HW2 4692   1.045   1.891   5.437
 1454SOL     OW 4693   0.504   1.912   5.464
 1454SOL    HW1 4694   0.462   1.855   5.394
 1454SOL    HW2 4695   0.438   1.981   5.496
 1455SOL     OW 4696   0.573   2.732   4.753
 1455SOL    HW1 4697   0.617   2.821   4.744
 1455SOL    HW2 4698   0.510   2.732   4.830
 1456SOL     OW 4699   1.360   2.724   4.769
 1456SOL    HW1 4700   1.285   2.724   4.703
 1456SOL    HW2 4701   1.397   2.632   4.778
 1457SOL     OW 4702   1.209   2.387   3.999
 1457SOL    HW1 4703   1.222   2.303   4.053
 1457SOL    HW2 4704   1.180   2.461   4.059
 1458SOL     OW 4705   0.307   2.075   4.955
 1458SOL    HW1 4706   0.284   2.112   5.045
 1458SOL    HW2 4707   0.277   1.980   4.949
 1459SOL     OW 4708   0.037   3.172   5.006
 1459SOL    HW1 4709   0.090   3.123   5.074
 1459SOL    HW2 4710   0.059   3.270   5.011
 1460SOL     OW 4711   0.732   2.496   4.788
 1460SOL    HW1 4712   0.791   2.470   4.712
 1460SOL    HW2 4713   0.704   2.592   4.777
 1461SOL     OW 4714   1.728   2.797   5.578
 1461SOL    HW1 4715   1.682   2.790   5.489
 1461SOL    HW2 4716   1.666   2.841   5.644
 1462SOL     OW 4717   0.307   1.925   4.342
 1462SOL    HW1 4718   0.296   2.019   4.375
 1462SOL    HW2 4719   0.302   1.862   4.419
 1463SOL     OW 4720   1.622   2.229   4.098
 1463SOL    HW1 4721   1.624   2.153   4.162
 1463SOL    HW2 4722   1.574   2.306   4.138
 1464SOL     OW 4723   1.023   2.628   4.690
 1464SOL    HW1 4724   1.038   2.649   4.786
 1464SOL    HW2 4725   0.993   2.533   4.681
 1465SOL     OW 4726   0.980   3.435   5.424
 1465SOL    HW1 4727   0.960   3.479   5.336
 1465SOL    HW2 4728   1.019   3.344   5.408
 1466SOL     OW 4729   1.859   3.380   5.329
 1466SOL    HW1 4730   1.873   3.407   5.234
 1466SOL    HW2 4731   1.942   3.402   5.382
 1467SOL     OW 4732   0.350   2.760   5.528
 1467SOL    HW1 4733   0.426   2.804   5.576
 1467SOL    HW2 4734   0.385   2.713   5.446
 1468SOL     OW 4735   1.540   2.136   3.849
 1468SOL    HW1 4736   1.479   2.061   3.872
 1468SOL    HW2 4737   1.562   2.188   3.932
 1469SOL     OW 4738   1.303   2.700   3.766
 1469SOL    HW1 4739   1.337   2.607   3.781
 1469SOL    HW2 4740   1.321   2.727   3.671
 1470SOL     OW 4741   1.068   3.195   4.573
 1470SOL    HW1 4742   1.075   3.111   4.518
 1470SOL    HW2 4743   1.130   3.264   4.537
 1471SOL     OW 4744   0.319   2.672   4.673
 1471SOL    HW1 4745   0.412   2.708   4.678
 1471SOL    HW2 4746   0.313   2.587   4.725
 1472SOL     OW 4747   0.339   2.371   4.730
 1472SOL    HW1 4748   0.287   2.288   4.713
 1472SOL    HW2 4749   0.416   2.376   4.666
 1473SOL     OW 4750   1.138   2.242   5.402
 1473SOL    HW1 4751   1.093   2.305   5.466
 1473SOL    HW2 4752   1.231   2.273   5.385
 1474SOL     OW 4753   1.160   2.069   5.201
 1474SOL    HW1 4754   1.160   2.133   5.278
 1474SOL    HW2 4755   1.188   2.117   5.118
 1475SOL     OW 4756   0.008   3.188   3.924
 1475SOL    HW1 4757  -0.085   3.209   3.893
 1475SOL    HW2 4758   0.018   3.089   3.937
 1476SOL     OW 4759   0.088   3.663   4.651
 1476SOL    HW1 4760   0.046   3.577   4.624
 1476SOL    HW2 4761   0.182   3.666   4.617
 1477SOL     OW 4762   0.504   3.430   4.634
 1477SOL    HW1 4763   0.570   3.504   4.643
 1477SOL    HW2 4764   0.548   3.351   4.592
 1478SOL     OW 4765   1.002   2.658   4.962
 1478SOL    HW1 4766   1.043   2.626   5.048
 1478SOL    HW2 4767   0.906   2.631   4.959
 1479SOL     OW 4768   0.040   2.406   4.838
 1479SOL    HW1 4769   0.125   2.373   4.797
 1479SOL    HW2 4770   0.053   2.421   4.936
 1480SOL     OW 4771   0.189   2.382   5.446
 1480SOL    HW1 4772   0.248   2.342   5.376
 1480SOL    HW2 4773   0.131   2.453   5.405
 1481SOL     OW 4774   1.369   2.812   5.384
 1481SOL    HW1 4775   1.408   2.901   5.404
 1481SOL    HW2 4776   1.379   2.792   5.287
 1482SOL     OW 4777   0.815   2.434   4.049
 1482SOL    HW1 4778   0.822   2.345   4.003
 1482SOL    HW2 4779   0.721   2.468   4.041
 1483SOL     OW 4780   1.657   2.466   4.930
 1483SOL    HW1 4781   1.619   2.397   4.992
 1483SOL    HW2 4782   1.739   2.430   4.886
 1484SOL     OW 4783   0.252   3.426   5.468
 1484SOL    HW1 4784   0.222   3.483   5.544
 1484SOL    HW2 4785   0.245   3.329   5.494
 1485SOL     OW 4786   0.671   2.326   4.993
 1485SOL    HW1 4787   0.637   2.237   4.963
 1485SOL    HW2 4788   0.697   2.380   4.913
 1486SOL     OW 4789   0.930   3.540   5.189
 1486SOL    HW1 4790   0.906   3.522   5.094
 1486SOL    HW2 4791   0.960   3.634   5.199
 1487SOL     OW 4792   0.473   2.362   3.915
 1487SOL    HW1 4793   0.534   2.442   3.919
 1487SOL    HW2 4794   0.378   2.393   3.922
 1488SOL     OW 4795   0.159   2.999   5.190
 1488SOL    HW1 4796   0.181   2.938   5.266
 1488SOL    HW2 4797   0.169   2.950   5.104
 1489SOL     OW 4798   1.347   2.921   4.958
 1489SOL    HW1 4799   1.371   2.858   4.884
 1489SOL    HW2 4800   1.257   2.961   4.940
 1490SOL     OW 4801   1.302   2.717   4.033
 1490SOL    HW1 4802   1.216   2.686   4.075
 1490SOL    HW2 4803   1.298   2.703   3.934
 1491SOL     OW 4804   1.759   3.609   4.878
 1491SOL    HW1 4805   1.820   3.639   4.805
 1491SOL    HW2 4806   1.721   3.520   4.856
 1492SOL     OW 4807   1.252   3.593   4.852
 1492SOL    HW1 4808   1.336   3.598   4.798
 1492SOL    HW2 4809   1.229   3.497   4.870
 1493SOL     OW 4810   0.083   3.120   4.746
 1493SOL    HW1 4811   0.078   3.119   4.846
 1493SOL    HW2 4812   0.000   3.079   4.708
 1494SOL     OW 4813   0.688   3.524   5.440
 1494SOL    HW1 4814   0.632   3.605   5.449
 1494SOL    HW2 4815   0.740   3.528   5.354
 1495SOL     OW 4816   1.726   1.997   4.247
 1495SOL    HW1 4817   1.799   1.980   4.180
 1495SOL    HW2 4818   1.695   1.910   4.285
 1496SOL     OW 4819   1.388   3.435   4.201
 1496SOL    HW1 4820   1.455   3.447   4.127
 1496SOL    HW2 4821   1.348   3.524   4.224
 1497SOL     OW 4822   0.130   3.656   5.575
 1497SOL    HW1 4823   0.089   3.582   5.628
 1497SOL    HW2 4824   0.194   3.707   5.633
 1498SOL     OW 4825   1.280   2.789   4.396
 1498SOL    HW1 4826   1.340   2.708   4.398
 1498SOL    HW2 4827   1.320   2.858   4.336
 1499SOL     OW 4828   0.830   3.135   5.146
 1499SOL    HW1 4829   0.825   3.168   5.241
 1499SOL    HW2 4830   0.744   3.154   5.100
 1500SOL     OW 4831   0.672   3.478   3.878
 1500SOL    HW1 4832   0.681   3.488   3.779
 1500SOL    HW2 4833   0.632   3.389   3.899
 1501SOL     OW 4834   1.650   3.582   5.118
 1501SOL    HW1 4835   1.703   3.592   5.034
 1501SOL    HW2 4836   1.623   3.672   5.152
 1502SOL     OW 4837   1.841   2.037   4.687
 1502SOL    HW1 4838   1.880   1.952   4.651
 1502SOL    HW2 4839   1.743   2.039   4.668
 1503SOL     OW 4840   0.263   2.188   4.444
 1503SOL    HW1 4841   0.184   2.239   4.410
 1503SOL    HW2 4842   0.254   2.173   4.542
 1504SOL     OW 4843   1.194   3.474   3.755
 1504SOL    HW1 4844   1.200   3.381   3.792
 1504SOL    HW2 4845   1.135   3.474   3.675
 1505SOL     OW 4846   0.822   2.864   5.096
 1505SOL    HW1 4847   0.862   2.863   5.004
 1505SOL    HW2 4848   0.832   2.956   5.136
 1506SOL     OW 4849   0.916   2.772   4.015
 1506SOL    HW1 4850   0.979   2.810   3.947
 1506SOL    HW2 4851   0.956   2.689   4.054
 1507SOL     OW 4852   1.504   3.469   3.768
 1507SOL    HW1 4853   1.412   3.506   3.775
 1507SOL    HW2 4854   1.542   3.489   3.678
 1508SOL     OW 4855   0.372   3.150   5.214
 1508SOL    HW1 4856   0.359   3.243   5.180
 1508SOL    HW2 4857   0.288   3.098   5.201
 1509SOL     OW 4858   1.614   3.154   5.013
 1509SOL    HW1 4859   1.674   3.157   5.093
 1509SOL    HW2 4860   1.539   3.218   5.026
 1510SOL     OW 4861   1.039   2.960   4.420
 1510SOL    HW1 4862   0.969   2.913   4.474
 1510SOL    HW2 4863   1.098   2.892   4.377
 1511SOL     OW 4864   1.014   2.098   4.695
 1511SOL    HW1 4865   1.006   2.062   4.602
 1511SOL    HW2 4866   1.012   2.022   4.760
 1512SOL     OW 4867   0.590   3.349   4.215
 1512SOL    HW1 4868   0.632   3.291   4.145
 1512SOL    HW2 4869   0.546   3.428   4.171
 1513SOL     OW 4870   1.709   2.247   5.105
 1513SOL    HW1 4871   1.782   2.316   5.109
 1513SOL    HW2 4872   1.737   2.172   5.046
 1514SOL     OW 4873   0.255   3.210   4.014
 1514SOL    HW1 4874   0.159   3.211   3.987
 1514SOL    HW2 4875   0.267   3.263   4.098
 1515SOL     OW 4876   0.105   2.875   5.450
 1515SOL    HW1 4877   0.028   2.842   5.504
 1515SOL    HW2 4878   0.190   2.845   5.492
 1516SOL     OW 4879   0.672   2.065   5.213
 1516SOL    HW1 4880   0.762   2.049   5.173
 1516SOL    HW2 4881   0.680   2.070   5.312
 1517SOL     OW 4882   0.075   2.207   3.757
 1517SOL    HW1 4883  -0.017   2.179   3.728
 1517SOL    HW2 4884   0.106   2.284   3.701
 1518SOL     OW 4885   1.440   2.718   5.122
 1518SOL    HW1 4886   1.383   2.770   5.059
 1518SOL    HW2 4887   1.536   2.730   5.098
 1519SOL     OW 4888   0.072   2.028   4.042
 1519SOL    HW1 4889   0.055   2.111   3.988
 1519SOL    HW2 4890   0.162   1.991   4.020
 1520SOL     OW 4891   1.183   3.197   3.843
 1520SOL    HW1 4892   1.084   3.186   3.845
 1520SOL    HW2 4893   1.217   3.212   3.936
 1521SOL     OW 4894   0.613   2.704   5.155
 1521SOL    HW1 4895   0.669   2.785   5.138
 1521SOL    HW2 4896   0.672   2.624   5.158
 1522SOL     OW 4897   1.493   3.629   4.683
 1522SOL    HW1 4898   1.526   3.693   4.614
 1522SOL    HW2 4899   1.559   3.623   4.758
 1523SOL     OW 4900   0.716   2.427   5.432
 1523SOL    HW1 4901   0.735   2.492   5.506
 1523SOL    HW2 4902   0.776   2.347   5.441
 1524SOL     OW 4903   1.450   3.082   5.357
 1524SOL    HW1 4904   1.441   3.072   5.456
 1524SOL    HW2 4905   1.546   3.075   5.331
 1525SOL     OW 4906   0.390   3.603   5.284
 1525SOL    HW1 4907   0.299   3.644   5.282
 1525SOL    HW2 4908   0.383   3.509   5.316
 1526SOL     OW 4909   1.674   2.745   4.978
 1526SOL    HW1 4910   1.647   2.656   4.941
 1526SOL    HW2 4911   1.675   2.813   4.905
 1527SOL     OW 4912   1.225   2.187   4.173
 1527SOL    HW1 4913   1.290   2.113   4.162
 1527SOL    HW2 4914   1.245   2.237   4.257
 1528SOL     OW 4915   0.594   2.607   4.376
 1528SOL    HW1 4916   0.644   2.692   4.357
 1528SOL    HW2 4917   0.506   2.609   4.328
 1529SOL     OW 4918   1.777   2.204   5.366
 1529SOL    HW1 4919   1.760   2.235   5.272
 1529SOL    HW2 4920   1.693   2.167   5.404
 1530SOL     OW 4921   1.730   2.796   5.241
 1530SOL    HW1 4922   1.768   2.887   5.256
 1530SOL    HW2 4923   1.722   2.779   5.142
 1531SOL     OW 4924   0.859   3.236   3.740
 1531SOL    HW1 4925   0.813   3.251   3.828
 1531SOL    HW2 4926   0.903   3.321   3.710
 1532SOL     OW 4927   0.661   3.652   4.677
 1532SOL    HW1 4928   0.615   3.740   4.664
 1532SOL    HW2 4929   0.760   3.664   4.670
 1533SOL     OW 4930   0.859   2.818   4.585
 1533SOL    HW1 4931   0.913   2.749   4.633
 1533SOL    HW2 4932   0.827   2.887   4.651
 1534SOL     OW 4933   1.083   2.846   3.811
 1534SOL    HW1 4934   1.060   2.899   3.729
 1534SOL    HW2 4935   1.164   2.790   3.792
 1535SOL     OW 4936   1.861   3.431   4.575
 1535SOL    HW1 4937   1.790   3.419   4.505
 1535SOL    HW2 4938   1.862   3.352   4.635
 1536SOL     OW 4939   0.221   3.176   5.568
 1536SOL    HW1 4940   0.156   3.103   5.547
 1536SOL    HW2 4941   0.225   3.190   5.666
 1537SOL     OW 4942   0.079   3.102   4.377
 1537SOL    HW1 4943   0.078   3.055   4.465
 1537SOL    HW2 4944   0.161   3.074   4.326
 1538SOL     OW 4945   0.672   3.253   5.348
 1538SOL    HW1 4946   0.594   3.203   5.386
 1538SOL    HW2 4947   0.669   3.348   5.379
 1539SOL     OW 4948   1.824   2.054   4.951
 1539SOL    HW1 4949   1.820   1.964   4.995
 1539SOL    HW2 4950   1.827   2.043   4.852
 1540SOL     OW 4951   0.428   2.286   4.244
 1540SOL    HW1 4952   0.458   2.214   4.182
 1540SOL    HW2 4953   0.389   2.246   4.327
 1541SOL     OW 4954   1.705   3.349   4.828
 1541SOL    HW1 4955   1.612   3.324   4.801
 1541SOL    HW2 4956   1.731   3.299   4.910
 1542SOL     OW 4957   0.317   2.409   5.004
 1542SOL    HW1 4958   0.355   2.350   5.076
 1542SOL    HW2 4959   0.357   2.383   4.916
 1543SOL     OW 4960   0.812   3.448   4.411
 1543SOL    HW1 4961   0.844   3.458   4.317
 1543SOL    HW2 4962   0.733   3.386   4.413
 1544SOL     OW 4963   1.424   2.076   4.836
 1544SOL    HW1 4964   1.476   2.011   4.891
 1544SOL    HW2 4965   1.375   2.139   4.897
 1545SOL     OW 4966   1.001   1.896   4.878
 1545SOL    HW1 4967   0.938   1.824   4.847
 1545SOL    HW2 4968   1.094   1.860   4.878
 1546SOL     OW 4969   0.770   3.192   4.025
 1546SOL    HW1 4970   0.724   3.105   4.042
 1546SOL    HW2 4971   0.861   3.189   4.066
 1547SOL     OW 4972   0.618   3.429   5.008
 1547SOL    HW1 4973   0.613   3.511   5.065
 1547SOL    HW2 4974   0.707   3.426   4.963
 1548SOL     OW 4975   1.352   1.914   3.892
 1548SOL    HW1 4976   1.387   1.873   3.808
 1548SOL    HW2 4977   1.262   1.876   3.912
 1549SOL     OW 4978   1.300   2.315   4.415
 1549SOL    HW1 4979   1.241   2.395   4.419
 1549SOL    HW2 4980   1.315   2.280   4.508
 1550SOL     OW 4981   1.593   2.083   4.606
 1550SOL    HW1 4982   1.509   2.082   4.660
 1550SOL    HW2 4983   1.595   2.166   4.550
 1551SOL     OW 4984   0.039   2.939   4.024
 1551SOL    HW1 4985   0.138   2.928   4.015
 1551SOL    HW2 4986  -0.001   2.853   4.056
 1552SOL     OW 4987   0.875   3.508   4.061
 1552SOL    HW1 4988   0.798   3.473   4.007
 1552SOL    HW2 4989   0.843   3.579   4.123
 1553SOL     OW 4990   0.230   2.490   5.699
 1553SOL    HW1 4991   0.137   2.488   5.736
 1553SOL    HW2 4992   0.231   2.451   5.607
 1554SOL     OW 4993   0.225   2.137   6.582
 1554SOL    HW1 4994   0.260   2.120   6.674
 1554SOL    HW2 4995   0.137   2.092   6.570
 1555SOL     OW 4996   0.019   2.230   6.233
 1555SOL    HW1 4997  -0.063   2.273   6.272
 1555SOL    HW2 4998  -0.009   2.157   6.170
 1556SOL     OW 4999   0.569   3.137   6.751
 1556SOL    HW1 5000   0.476   3.130   6.714
 1556SOL    HW2 5001   0.580   3.226   6.795
 1557SOL     OW 5002   1.555   3.373   6.289
 1557SOL    HW1 5003   1.498   3.357   6.370
 1557SOL    HW2 5004   1.496   3.383   6.209
 1558SOL     OW 5005   1.135   2.565   6.303
 1558SOL    HW1 5006   1.192   2.643   6.278
 1558SOL    HW2 5007   1.075   2.591   6.379
 1559SOL     OW 5008   1.755   2.469   5.817
 1559SOL    HW1 5009   1.743   2.456   5.718
 1559SOL    HW2 5010   1.725   2.388   5.866
 1560SOL     OW 5011   0.768   3.006   6.609
 1560SOL    HW1 5012   0.690   3.023   6.669
 1560SOL    HW2 5013   0.802   3.093   6.573
 1561SOL     OW 5014   0.850   2.660   7.409
 1561SOL    HW1 5015   0.846   2.736   7.474
 1561SOL    HW2 5016   0.872   2.696   7.318
 1562SOL     OW 5017   0.685   2.874   6.251
 1562SOL    HW1 5018   0.754   2.858   6.321
 1562SOL    HW2 5019   0.612   2.931   6.289
 1563SOL     OW 5020   0.686   3.023   7.389
 1563SOL    HW1 5021   0.746   3.102   7.403
 1563SOL    HW2 5022   0.600   3.054   7.348
 1564SOL     OW 5023   0.335   3.297   6.647
 1564SOL    HW1 5024   0.257   3.266   6.594
 1564SOL    HW2 5025   0.393   3.355   6.590
 1565SOL     OW 5026   1.460   3.367   6.925
 1565SOL    HW1 5027   1.484   3.461   6.951
 1565SOL    HW2 5028   1.444   3.313   7.007
 1566SOL     OW 5029   0.438   2.254   7.085
 1566SOL    HW1 5030   0.520   2.198   7.094
 1566SOL    HW2 5031   0.357   2.196   7.089
 1567SOL     OW 5032   1.603   2.309   6.323
 1567SOL    HW1 5033   1.529   2.355   6.273
 1567SOL    HW2 5034   1.654   2.377   6.376
 1568SOL     OW 5035   0.231   3.575   6.069
 1568SOL    HW1 5036   0.265   3.652   6.123
 1568SOL    HW2 5037   0.275   3.575   5.979
 1569SOL     OW 5038   1.127   3.203   7.276
 1569SOL    HW1 5039   1.174   3.203   7.364
 1569SOL    HW2 5040   1.079   3.116   7.265
 1570SOL     OW 5041   0.230   3.296   6.124
 1570SOL    HW1 5042   0.204   3.392   6.124
 1570SOL    HW2 5043   0.159   3.242   6.169
 1571SOL     OW 5044   0.240   2.953   6.472
 1571SOL    HW1 5045   0.254   2.869   6.524
 1571SOL    HW2 5046   0.185   3.017   6.527
 1572SOL     OW 5047   0.620   3.648   7.025
 1572SOL    HW1 5048   0.528   3.631   7.060
 1572SOL    HW2 5049   0.648   3.740   7.051
 1573SOL     OW 5050   0.606   2.826   5.709
 1573SOL    HW1 5051   0.613   2.910   5.655
 1573SOL    HW2 5052   0.652   2.839   5.797
 1574SOL     OW 5053   1.594   1.976   7.066
 1574SOL    HW1 5054   1.576   2.043   6.994
 1574SOL    HW2 5055   1.591   2.022   7.155
 1575SOL     OW 5056   0.122   2.505   6.149
 1575SOL    HW1 5057   0.077   2.417   6.166
 1575SOL    HW2 5058   0.121   2.559   6.233
 1576SOL     OW 5059   1.842   3.629   5.945
 1576SOL    HW1 5060   1.896   3.600   6.025
 1576SOL    HW2 5061   1.872   3.719   5.916
 1577SOL     OW 5062   0.027   3.458   5.703
 1577SOL    HW1 5063   0.008   3.362   5.724
 1577SOL    HW2 5064  -0.006   3.516   5.778
 1578SOL     OW 5065   1.689   2.784   6.198
 1578SOL    HW1 5066   1.784   2.755   6.206
 1578SOL    HW2 5067   1.681   2.849   6.123
 1579SOL     OW 5068   1.641   2.970   6.018
 1579SOL    HW1 5069   1.727   2.972   5.966
 1579SOL    HW2 5070   1.655   3.017   6.106
 1580SOL     OW 5071   0.113   2.599   7.183
 1580SOL    HW1 5072   0.201   2.586   7.228
 1580SOL    HW2 5073   0.100   2.696   7.161
 1581SOL     OW 5074   0.613   3.227   6.312
 1581SOL    HW1 5075   0.564   3.140   6.321
 1581SOL    HW2 5076   0.590   3.270   6.225
 1582SOL     OW 5077   1.293   3.090   7.009
 1582SOL    HW1 5078   1.330   3.017   6.951
 1582SOL    HW2 5079   1.345   3.095   7.094
 1583SOL     OW 5080   0.809   1.866   6.088
 1583SOL    HW1 5081   0.849   1.957   6.079
 1583SOL    HW2 5082   0.709   1.874   6.094
 1584SOL     OW 5083   0.197   2.838   6.850
 1584SOL    HW1 5084   0.286   2.793   6.836
 1584SOL    HW2 5085   0.124   2.773   6.831
 1585SOL     OW 5086   1.525   2.861   5.776
 1585SOL    HW1 5087   1.462   2.785   5.789
 1585SOL    HW2 5088   1.573   2.879   5.862
 1586SOL     OW 5089   1.187   3.654   7.202
 1586SOL    HW1 5090   1.211   3.714   7.126
 1586SOL    HW2 5091   1.194   3.559   7.172
 1587SOL     OW 5092   0.317   2.113   7.387
 1587SOL    HW1 5093   0.388   2.184   7.393
 1587SOL    HW2 5094   0.229   2.152   7.415
 1588SOL     OW 5095   1.466   3.279   6.539
 1588SOL    HW1 5096   1.407   3.285   6.619
 1588SOL    HW2 5097   1.451   3.191   6.493
 1589SOL     OW 5098   1.667   3.576   6.158
 1589SOL    HW1 5099   1.626   3.553   6.070
 1589SOL    HW2 5100   1.649   3.502   6.223
 1590SOL     OW 5101   0.598   2.591   5.856
 1590SOL    HW1 5102   0.622   2.660   5.788
 1590SOL    HW2 5103   0.520   2.624   5.910
 1591SOL     OW 5104   1.281   2.207   6.530
 1591SOL    HW1 5105   1.195   2.157   6.517
 1591SOL    HW2 5106   1.343   2.153   6.586
 1592SOL     OW 5107   1.576   3.524   5.893
 1592SOL    HW1 5108   1.665   3.570   5.896
 1592SOL    HW2 5109   1.555   3.500   5.798
 1593SOL     OW 5110   0.807   2.467   7.051
 1593SOL    HW1 5111   0.760   2.464   7.140
 1593SOL    HW2 5112   0.756   2.412   6.985
 1594SOL     OW 5113   1.394   2.331   7.260
 1594SOL    HW1 5114   1.374   2.374   7.348
 1594SOL    HW2 5115   1.472   2.269   7.269
 1595SOL     OW 5116   0.973   2.752   7.158
 1595SOL    HW1 5117   1.019   2.668   7.129
 1595SOL    HW2 5118   0.917   2.786   7.083
 1596SOL     OW 5119   0.991   2.272   6.828
 1596SOL    HW1 5120   0.914   2.306   6.882
 1596SOL    HW2 5121   0.957   2.221   6.749
 1597SOL     OW 5122   1.041   2.563   6.015
 1597SOL    HW1 5123   1.067   2.559   6.111
 1597SOL    HW2 5124   0.956   2.512   6.001
 1598SOL     OW 5125   0.076   2.673   6.375
 1598SOL    HW1 5126   0.175   2.661   6.384
 1598SOL    HW2 5127   0.052   2.768   6.396
 1599SOL     OW 5128   0.130   3.683   7.157
 1599SOL    HW1 5129   0.120   3.668   7.256
 1599SOL    HW2 5130   0.044   3.719   7.121
 1600SOL     OW 5131   0.865   2.210   5.781
 1600SOL    HW1 5132   0.924   2.273   5.732
 1600SOL    HW2 5133   0.884   2.116   5.752
 1601SOL     OW 5134   1.719   2.447   7.417
 1601SOL    HW1 5135   1.693   2.536   7.381
 1601SOL    HW2 5136   1.717   2.379   7.344
 1602SOL     OW 5137   1.362   3.006   6.131
 1602SOL    HW1 5138   1.445   2.977   6.083
 1602SOL    HW2 5139   1.313   3.073   6.075
 1603SOL     OW 5140   0.550   2.058   6.471
 1603SOL    HW1 5141   0.545   2.053   6.571
 1603SOL    HW2 5142   0.552   2.154   6.442
 1604SOL     OW 5143   1.008   3.318   6.063
 1604SOL    HW1 5144   0.962   3.390   6.011
 1604SOL    HW2 5145   1.004   3.338   6.161
 1605SOL     OW 5146   0.351   3.663   6.439
 1605SOL    HW1 5147   0.401   3.577   6.445
 1605SOL    HW2 5148   0.416   3.740   6.436
 1606SOL     OW 5149   1.795   2.928   6.459
 1606SOL    HW1 5150   1.733   2.913   6.383
 1606SOL    HW2 5151   1.743   2.939   6.544
 1607SOL     OW 5152   1.227   3.412   7.092
 1607SOL    HW1 5153   1.233   3.335   7.156
 1607SOL    HW2 5154   1.175   3.386   7.012
 1608SOL     OW 5155   0.321   2.805   5.828
 1608SOL    HW1 5156   0.403   2.844   5.786
 1608SOL    HW2 5157   0.294   2.723   5.779
 1609SOL     OW 5158   1.458   2.597   6.314
 1609SOL    HW1 5159   1.453   2.532   6.389
 1609SOL    HW2 5160   1.538   2.656   6.327
 1610SOL     OW 5161   0.461   3.128   7.313
 1610SOL    HW1 5162   0.411   3.129   7.227
 1610SOL    HW2 5163   0.398   3.110   7.389
 1611SOL     OW 5164   1.111   3.638   5.823
 1611SOL    HW1 5165   1.051   3.576   5.873
 1611SOL    HW2 5166   1.142   3.594   5.738
 1612SOL     OW 5167   0.202   2.147   7.084
 1612SOL    HW1 5168   0.122   2.207   7.071
 1612SOL    HW2 5169   0.192   2.098   7.170
 1613SOL     OW 5170   1.632   3.239   5.667
 1613SOL    HW1 5171   1.600   3.333   5.657
 1613SOL    HW2 5172   1.556   3.176   5.655
 1614SOL     OW 5173   0.464   3.605   5.909
 1614SOL    HW1 5174   0.497   3.644   5.995
 1614SOL    HW2 5175   0.540   3.598   5.844
 1615SOL     OW 5176   1.400   1.969   6.012
 1615SOL    HW1 5177   1.376   1.932   5.922
 1615SOL    HW2 5178   1.499   1.985   6.016
 1616SOL     OW 5179   0.249   3.647   6.827
 1616SOL    HW1 5180   0.306   3.582   6.877
 1616SOL    HW2 5181   0.233   3.614   6.734
 1617SOL     OW 5182   0.940   3.560   6.490
 1617SOL    HW1 5183   1.020   3.503   6.511
 1617SOL    HW2 5184   0.891   3.520   6.413
 1618SOL     OW 5185   0.382   2.562   6.066
 1618SOL    HW1 5186   0.427   2.472   6.063
 1618SOL    HW2 5187   0.288   2.551   6.099
 1619SOL     OW 5188   1.547   2.084   7.315
 1619SOL    HW1 5189   1.542   2.121   7.407
 1619SOL    HW2 5190   1.475   2.015   7.303
 1620SOL     OW 5191   0.614   1.984   5.703
 1620SOL    HW1 5192   0.712   1.962   5.710
 1620SOL    HW2 5193   0.583   1.967   5.610
 1621SOL     OW 5194   0.781   2.126   7.335
 1621SOL    HW1 5195   0.848   2.065   7.378
 1621SOL    HW2 5196   0.708   2.145   7.400
 1622SOL     OW 5197   0.888   3.376   6.781
 1622SOL    HW1 5198   0.865   3.351   6.687
 1622SOL    HW2 5199   0.949   3.307   6.820
 1623SOL     OW 5200   1.351   2.452   7.019
 1623SOL    HW1 5201   1.379   2.409   7.104
 1623SOL    HW2 5202   1.376   2.548   7.020
 1624SOL     OW 5203   0.803   3.264   6.510
 1624SOL    HW1 5204   0.893   3.278   6.468
 1624SOL    HW2 5205   0.732   3.266   6.439
 1625SOL     OW 5206   0.922   2.365   6.485
 1625SOL    HW1 5207   0.897   2.356   6.389
 1625SOL    HW2 5208   0.970   2.283   6.516
 1626SOL     OW 5209   0.539   1.926   6.098
 1626SOL    HW1 5210   0.458   1.927   6.156
 1626SOL    HW2 5211   0.542   2.009   6.043
 1627SOL     OW 5212   1.434   3.050   5.627
 1627SOL    HW1 5213   1.466   2.974   5.684
 1627SOL    HW2 5214   1.342   3.077   5.657
 1628SOL     OW 5215   0.297   1.897   5.757
 1628SOL    HW1 5216   0.346   1.981   5.736
 1628SOL    HW2 5217   0.359   1.832   5.802
 1629SOL     OW 5218   0.935   2.098   6.066
 1629SOL    HW1 5219   0.887   2.139   5.988
 1629SOL    HW2 5220   1.034   2.096   6.047
 1630SOL     OW 5221   1.076   2.545   7.050
 1630SOL    HW1 5222   0.996   2.484   7.053
 1630SOL    HW2 5223   1.157   2.492   7.026
 1631SOL     OW 5224   1.227   3.432   6.379
 1631SOL    HW1 5225   1.248   3.506   6.314
 1631SOL    HW2 5226   1.295   3.432   6.452
 1632SOL     OW 5227   0.459   3.014   6.327
 1632SOL    HW1 5228   0.388   2.987   6.392
 1632SOL    HW2 5229   0.433   2.986   6.234
 1633SOL     OW 5230   1.271   3.659   6.177
 1633SOL    HW1 5231   1.315   3.723   6.113
 1633SOL    HW2 5232   1.221   3.711   6.247
 1634SOL     OW 5233   1.032   2.411   5.602
 1634SOL    HW1 5234   0.991   2.493   5.563
 1634SOL    HW2 5235   1.096   2.437   5.675
 1635SOL     OW 5236   0.078   2.418   6.972
 1635SOL    HW1 5237   0.170   2.417   6.931
 1635SOL    HW2 5238   0.072   2.492   7.039
 1636SOL     OW 5239   0.561   2.084   6.733
 1636SOL    HW1 5240   0.599   2.000   6.770
 1636SOL    HW2 5241   0.473   2.103   6.777
 1637SOL     OW 5242   0.866   2.316   6.228
 1637SOL    HW1 5243   0.834   2.388   6.166
 1637SOL    HW2 5244   0.890   2.235   6.175
 1638SOL     OW 5245   1.017   1.901   6.339
 1638SOL    HW1 5246   0.945   1.906   6.270
 1638SOL    HW2 5247   0.993   1.832   6.408
 1639SOL     OW 5248   1.429   3.035   6.453
 1639SOL    HW1 5249   1.374   2.951   6.446
 1639SOL    HW2 5250   1.455   3.064   6.361
 1640SOL     OW 5251   1.466   2.452   6.578
 1640SOL    HW1 5252   1.436   2.357   6.585
 1640SOL    HW2 5253   1.539   2.468   6.644
 1641SOL     OW 5254   1.857   2.695   5.963
 1641SOL    HW1 5255   1.899   2.631   6.027
 1641SOL    HW2 5256   1.819   2.644   5.885
 1642SOL     OW 5257   0.488   3.247   5.760
 1642SOL    HW1 5258   0.401   3.232   5.807
 1642SOL    HW2 5259   0.471   3.273   5.665
 1643SOL     OW 5260   1.664   3.142   6.243
 1643SOL    HW1 5261   1.763   3.150   6.257
 1643SOL    HW2 5262   1.619   3.226   6.274
 1644SOL     OW 5263   1.390   2.437   5.664
 1644SOL    HW1 5264   1.336   2.416   5.745
 1644SOL    HW2 5265   1.481   2.396   5.673
 1645SOL     OW 5266   0.527   2.118   5.914
 1645SOL    HW1 5267   0.554   2.059   5.839
 1645SOL    HW2 5268   0.527   2.213   5.883
 1646SOL     OW 5269   1.754   3.085   7.174
 1646SOL    HW1 5270   1.845   3.046   7.161
 1646SOL    HW2 5271   1.762   3.181   7.198
 1647SOL     OW 5272   1.064   3.209   6.926
 1647SOL    HW1 5273   0.984   3.186   6.981
 1647SOL    HW2 5274   1.147   3.183   6.975
 1648SOL     OW 5275   1.592   3.491   7.211
 1648SOL    HW1 5276   1.619   3.525   7.121
 1648SOL    HW2 5277   1.671   3.453   7.257
 1649SOL     OW 5278   1.111   3.057   6.686
 1649SOL    HW1 5279   1.071   3.101   6.767
 1649SOL    HW2 5280   1.070   3.094   6.603
 1650SOL     OW 5281   1.638   2.961   6.665
 1650SOL    HW1 5282   1.643   3.042   6.724
 1650SOL    HW2 5283   1.552   2.963   6.614
 1651SOL     OW 5284   0.915   1.951   6.988
 1651SOL    HW1 5285   0.940   1.931   6.893
 1651SOL    HW2 5286   0.987   2.007   7.030
 1652SOL     OW 5287   0.980   2.978   7.305
 1652SOL    HW1 5288   0.881   2.984   7.315
 1652SOL    HW2 5289   1.003   2.898   7.249
 1653SOL     OW 5290   0.705   2.912   5.954
 1653SOL    HW1 5291   0.691   2.919   6.053
 1653SOL    HW2 5292   0.789   2.861   5.936
 1654SOL     OW 5293   0.410   2.675   6.837
 1654SOL    HW1 5294   0.496   2.687   6.887
 1654SOL    HW2 5295   0.368   2.588   6.864
 1655SOL     OW 5296   1.274   2.248   6.848
 1655SOL    HW1 5297   1.295   2.322   6.912
 1655SOL    HW2 5298   1.185   2.265   6.805
 1656SOL     OW 5299   0.064   3.426   6.917
 1656SOL    HW1 5300   0.018   3.508   6.883
 1656SOL    HW2 5301   0.162   3.445   6.926
 1657SOL     OW 5302   0.367   2.962   6.087
 1657SOL    HW1 5303   0.360   3.045   6.031
 1657SOL    HW2 5304   0.371   2.882   6.027
 1658SOL     OW 5305   0.566   2.399   6.451
 1658SOL    HW1 5306   0.578   2.465   6.377
 1658SOL    HW2 5307   0.612   2.433   6.534
 1659SOL     OW 5308   1.252   3.210   5.974
 1659SOL    HW1 5309   1.302   3.287   6.014
 1659SOL    HW2 5310   1.157   3.212   6.006
 1660SOL     OW 5311   1.272   3.307   6.728
 1660SOL    HW1 5312   1.319   3.320   6.815
 1660SOL    HW2 5313   1.206   3.233   6.737
 1661SOL     OW 5314   1.582   2.501   6.058
 1661SOL    HW1 5315   1.551   2.562   6.131
 1661SOL    HW2 5316   1.632   2.553   5.989
 1662SOL     OW 5317   0.354   3.372   6.915
 1662SOL    HW1 5318   0.333   3.328   6.828
 1662SOL    HW2 5319   0.451   3.398   6.918
 1663SOL     OW 5320   0.402   2.613   7.184
 1663SOL    HW1 5321   0.470   2.668   7.137
 1663SOL    HW2 5322   0.442   2.525   7.211
 1664SOL     OW 5323   1.587   2.641   7.256
 1664SOL    HW1 5324   1.495   2.679   7.251
 1664SOL    HW2 5325   1.647   2.688   7.191
 1665SOL     OW 5326   1.013   1.967   7.356
 1665SOL    HW1 5327   1.019   2.052   7.304
 1665SOL    HW2 5328   1.045   1.891   7.299
 1666SOL     OW 5329   0.504   1.912   7.326
 1666SOL    HW1 5330   0.462   1.855   7.256
 1666SOL    HW2 5331   0.438   1.981   7.358
 1667SOL     OW 5332   0.573   2.732   6.615
 1667SOL    HW1 5333   0.617   2.821   6.606
 1667SOL    HW2 5334   0.510   2.732   6.692
 1668SOL     OW 5335   1.360   2.724   6.631
 1668SOL    HW1 5336   1.285   2.724   6.565
 1668SOL    HW2 5337   1.397   2.632   6.640
 1669SOL     OW 5338   1.209   2.387   5.861
 1669SOL    HW1 5339   1.222   2.303   5.915
 1669SOL    HW2 5340   1.180   2.461   5.921
 1670SOL     OW 5341   0.307   2.075   6.817
 1670SOL    HW1 5342   0.284   2.112   6.907
 1670SOL    HW2 5343   0.277   1.980   6.811
 1671SOL     OW 5344   0.037   3.172   6.868
 1671SOL    HW1 5345   0.090   3.123   6.936
 1671SOL    HW2 5346   0.059   3.270   6.873
 1672SOL     OW 5347   0.732   2.496   6.650
 1672SOL    HW1 5348   0.791   2.470   6.574
 1672SOL    HW2 5349   0.704   2.592   6.639
 1673SOL     OW 5350   1.728   2.797   7.440
 1673SOL    HW1 5351   1.682   2.790   7.351
 1673SOL    HW2 5352   1.666   2.841   7.506
 1674SOL     OW 5353   0.307   1.925   6.204
 1674SOL    HW1 5354   0.296   2.019   6.237
 1674SOL    HW2 5355   0.302   1.862   6.281
 1675SOL     OW 5356   1.622   2.229   5.960
 1675SOL    HW1 5357   1.624   2.153   6.024
 1675SOL    HW2 5358   1.574   2.306   6.000
 1676SOL     OW 5359   1.023   2.628   6.552
 1676SOL    HW1 5360   1.038   2.649   6.648
 1676SOL    HW2 5361   0.993   2.533   6.543
 1677SOL     OW 5362   0.980   3.435   7.286
 1677SOL    HW1 5363   0.960   3.479   7.198
 1677SOL    HW2 5364   1.019   3.344   7.270
 1678SOL     OW 5365   1.859   3.380   7.191
 1678SOL    HW1 5366   1.873   3.407   7.096
 1678SOL    HW2 5367   1.942   3.402   7.244
 1679SOL     OW 5368   0.350   2.760   7.390
 1679SOL    HW1 5369   0.426   2.804   7.438
 1679SOL    HW2 5370   0.385   2.713   7.308
 1680SOL     OW 5371   1.540   2.136   5.711
 1680SOL    HW1 5372   1.479   2.061   5.734
 1680SOL    HW2 5373   1.562   2.188   5.794
 1681SOL     OW 5374   1.303   2.700   5.628
 1681SOL    HW1 5375   1.337   2.607   5.643
 1681SOL    HW2 5376   1.321   2.727   5.533
 1682SOL     OW 5377   1.068   3.195   6.435
 1682SOL    HW1 5378   1.075   3.111   6.380
 1682SOL    HW2 5379   1.130   3.264   6.399
 1683SOL     OW 5380   0.319   2.672   6.535
 1683SOL    HW1 5381   0.412   2.708   6.540
 1683SOL    HW2 5382   0.313   2.587   6.587
 1684SOL     OW 5383   0.339   2.371   6.592
 1684SOL    HW1 5384   0.287   2.288   6.575
 1684SOL    HW2 5385   0.416   2.376   6.528
 1685SOL     OW 5386   1.138   2.242   7.264
 1685SOL    HW1 5387   1.093   2.305   7.328
 1685SOL    HW2 5388   1.231   2.273   7.247
 1686SOL     OW 5389   1.160   2.069   7.063
 1686SOL    HW1 5390   1.160   2.133   7.140
 1686SOL    HW2 5391   1.188   2.117   6.980
 1687SOL     OW 5392   0.008   3.188   5.786
 1687SOL    HW1 5393  -0.085   3.209   5.755
 1687SOL    HW2 5394   0.018   3.089   5.799
 1688SOL     OW 5395   0.088   3.663   6.513
 1688SOL    HW1 5396   0.046   3.577   6.486
 1688SOL    HW2 5397   0.182   3.666   6.479
 1689SOL     OW 5398   0.504   3.430   6.496
 1689SOL    HW1 5399   0.570   3.504   6.505
 1689SOL    HW2 5400   0.548   3.351   6.454
 1690SOL     OW 5401   1.002   2.658   6.824
 1690SOL    HW1 5402   1.043   2.626   6.910
 1690SOL    HW2 5403   0.906   2.631   6.821
 1691SOL     OW 5404   0.040   2.406   6.700
 1691SOL    HW1 5405   0.125   2.373   6.659
 1691SOL    HW2 5406   0.053   2.421   6.798
 1692SOL     OW 5407   0.189   2.382   7.308
 1692SOL    HW1 5408   0.248   2.342   7.238
 1692SOL    HW2 5409   0.131   2.453   7.267
 1693SOL     OW 5410   1.369   2.812   7.246
 1693SOL    HW1 5411   1.408   2.901   7.266
 1693SOL    HW2 5412   1.379   2.792   7.149
 1694SOL     OW 5413   0.815   2.434   5.911
 1694SOL    HW1 5414   0.822   2.345   5.865
 1694SOL    HW2 5415   0.721   2.468   5.903
 1695SOL     OW 5416   1.657   2.466   6.792
 1695SOL    HW1 5417   1.619   2.397   6.854
 1695SOL    HW2 5418   1.739   2.430   6.748
 1696SOL     OW 5419   0.252   3.426   7.330
 1696SOL    HW1 5420   0.222   3.483   7.406
 1696SOL    HW2 5421   0.245   3.329   7.356
 1697SOL     OW 5422   0.671   2.326   6.855
 1697SOL    HW1 5423   0.637   2.237   6.825
 1697SOL    HW2 5424   0.697   2.380   6.775
 1698SOL     OW 5425   0.930   3.540   7.051
 1698SOL    HW1 5426   0.906   3.522   6.956
 1698SOL    HW2 5427   0.960   3.634   7.061
 1699SOL     OW 5428   0.473   2.362   5.777
 1699SOL    HW1 5429   0.534   2.442   5.781
 1699SOL    HW2 5430   0.378   2.393   5.784
 1700SOL     OW 5431   0.159   2.999   7.052
 1700SOL    HW1 5432   0.181   2.938   7.128
 1700SOL    HW2 5433   0.169   2.950   6.966
 1701SOL     OW 5434   1.347   2.921   6.820
 1701SOL    HW1 5435   1.371   2.858   6.746
 1701SOL    HW2 5436   1.257   2.961   6.802
 1702SOL     OW 5437   1.302   2.717   5.895
 1702SOL    HW1 5438   1.216   2.686   5.937
 1702SOL    HW2 5439   1.298   2.703   5.796
 1703SOL     OW 5440   1.759   3.609   6.740
 1703SOL    HW1 5441   1.820   3.639   6.667
 1703SOL    HW2 5442   1.721   3.520   6.718
 1704SOL     OW 5443   1.252   3.593   6.714
 1704SOL    HW1 5444   1.336   3.598   6.660
 1704SOL    HW2 5445   1.229   3.497   6.732
 1705SOL     OW 5446   0.083   3.120   6.608
 1705SOL    HW1 5447   0.078   3.119   6.708
 1705SOL    HW2 5448   0.000   3.079   6.570
 1706SOL     OW 5449   0.688   3.524   7.302
 1706SOL    HW1 5450   0.632   3.605   7.311
 1706SOL    HW2 5451   0.740   3.528   7.216
 1707SOL     OW 5452   1.726   1.997   6.109
 1707SOL    HW1 5453   1.799   1.980   6.042
 1707SOL    HW2 5454   1.695   1.910   6.147
 1708SOL     OW 5455   1.388   3.435   6.063
 1708SOL    HW1 5456   1.455   3.447   5.989
 1708SOL    HW2 5457   1.348   3.524   6.086
 1709SOL     OW 5458   0.130   3.656   7.437
 1709SOL    HW1 5459   0.089   3.582   7.490
 1709SOL    HW2 5460   0.194   3.707   7.495
 1710SOL     OW 5461   1.280   2.789   6.258
 1710SOL    HW1 5462   1.340   2.708   6.260
 1710SOL    HW2 5463   1.320   2.858   6.198
 1711SOL     OW 5464   0.830   3.135   7.008
 1711SOL    HW1 5465   0.825   3.168   7.103
 1711SOL    HW2 5466   0.744   3.154   6.962
 1712SOL     OW 5467   0.672   3.478   5.740
 1712SOL    HW1 5468   0.681   3.488   5.641
 1712SOL    HW2 5469   0.632   3.389   5.761
 1713SOL     OW 5470   1.650   3.582   6.980
 1713SOL    HW1 5471   1.703   3.592   6.896
 1713SOL    HW2 5472   1.623   3.672   7.014
 1714SOL     OW 5473   1.841   2.037   6.549
 1714SOL    HW1 5474   1.880   1.952   6.513
 1714SOL    HW2 5475   1.743   2.039   6.530
 1715SOL     OW 5476   0.263   2.188   6.306
 1715SOL    HW1 5477   0.184   2.239   6.272
 1715SOL    HW2 5478   0.254   2.173   6.404
 1716SOL     OW 5479   1.194   3.474   5.617
 1716SOL    HW1 5480   1.200   3.381   5.654
 1716SOL    HW2 5481   1.135   3.474   5.537
 1717SOL     OW 5482   0.822   2.864   6.958
 1717SOL    HW1 5483   0.862   2.863   6.866
 1717SOL    HW2 5484   0.832   2.956   6.998
 1718SOL     OW 5485   0.916   2.772   5.877
 1718SOL    HW1 5486   0.979   2.810   5.809
 1718SOL    HW2 5487   0.956   2.689   5.916
 1719SOL     OW 5488   1.504   3.469   5.630
 1719SOL    HW1 5489   1.412   3.506   5.637
 1719SOL    HW2 5490   1.542   3.489   5.540
 1720SOL     OW 5491   0.372   3.150   7.076
 1720SOL    HW1 5492   0.359   3.243   7.042
 1720SOL    HW2 5493   0.288   3.098   7.063
 1721SOL     OW 5494   1.614   3.154   6.875
 1721SOL    HW1 5495   1.674   3.157   6.955
 1721SOL    HW2 5496   1.539   3.218   6.888
 1722SOL     OW 5497   1.039   2.960   6.282
 1722SOL    HW1 5498   0.969   2.913   6.336
 1722SOL    HW2 5499   1.098   2.892   6.239
 1723SOL     OW 5500   1.014   2.098   6.557
 1723SOL    HW1 5501   1.006   2.062   6.464
 1723SOL    HW2 5502   1.012   2.022   6.622
 1724SOL     OW 5503   0.590   3.349   6.077
 1724SOL    HW1 5504   0.632   3.291   6.007
 1724SOL    HW2 5505   0.546   3.428   6.033
 1725SOL     OW 5506   1.709   2.247   6.967
 1725SOL    HW1 5507   1.782   2.316   6.971
 1725SOL    HW2 5508   1.737   2.172   6.908
 1726SOL     OW 5509   0.255   3.210   5.876
 1726SOL    HW1 5510   0.159   3.211   5.849
 1726SOL    HW2 5511   0.267   3.263   5.960
 1727SOL     OW 5512   0.105   2.875   7.312
 1727SOL    HW1 5513   0.028   2.842   7.366
 1727SOL    HW2 5514   0.190   2.845   7.354
 1728SOL     OW 5515   0.672   2.065   7.075
 1728SOL    HW1 5516   0.762   2.049   7.035
 1728SOL    HW2 5517   0.680   2.070   7.174
 1729SOL     OW 5518   0.075   2.207   5.619
 1729SOL    HW1 5519  -0.017   2.179   5.590
 1729SOL    HW2 5520   0.106   2.284   5.563
 1730SOL     OW 5521   1.440   2.718   6.984
 1730SOL    HW1 5522   1.383   2.770   6.921
 1730SOL    HW2 5523   1.536   2.730   6.960
 1731SOL     OW 5524   0.072   2.028   5.904
 1731SOL    HW1 5525   0.055   2.111   5.850
 1731SOL    HW2 5526   0.162   1.991   5.882
 1732SOL     OW 5527   1.183   3.197   5.705
 1732SOL    HW1 5528   1.084   3.186   5.707
 1732SOL    HW2 5529   1.217   3.212   5.798
 1733SOL     OW 5530   0.613   2.704   7.017
 1733SOL    HW1 5531   0.669   2.785   7.000
 1733SOL    HW2 5532   0.672   2.624   7.020
 1734SOL     OW 5533   1.493   3.629   6.545
 1734SOL    HW1 5534   1.526   3.693   6.476
 1734SOL    HW2 5535   1.559   3.623   6.620
 1735SOL     OW 5536   0.716   2.427   7.294
 1735SOL    HW1 5537   0.735   2.492   7.368
 1735SOL    HW2 5538   0.776   2.347   7.303
 1736SOL     OW 5539   1.450   3.082   7.219
 1736SOL    HW1 5540   1.441   3.072   7.318
 1736SOL    HW2 5541   1.546   3.075   7.193
 1737SOL     OW 5542   0.390   3.603   7.146
 1737SOL    HW1 5543   0.299   3.644   7.144
 1737SOL    HW2 5544   0.383   3.509   7.178
 1738SOL     OW 5545   1.674   2.745   6.840
 1738SOL    HW1 5546   1.647   2.656   6.803
 1738SOL    HW2 5547   1.675   2.813   6.767
 1739SOL     OW 5548   1.225   2.187   6.035
 1739SOL    HW1 5549   1.290   2.113   6.024
 1739SOL    HW2 5550   1.245   2.237   6.119
 1740SOL     OW 5551   0.594   2.607   6.238
 1740SOL    HW1 5552   0.644   2.692   6.219
 1740SOL    HW2 5553   0.506   2.609   6.190
 1741SOL     OW 5554   1.777   2.204   7.228
 1741SOL    HW1 5555   1.760   2.235   7.134
 1741SOL    HW2 5556   1.693   2.167   7.266
 1742SOL     OW 5557   1.730   2.796   7.103
 1742SOL    HW1 5558   1.768   2.887   7.118
 1742SOL    HW2 5559   1.722   2.779   7.004
 1743SOL     OW 5560   0.859   3.236   5.602
 1743SOL    HW1 5561   0.813   3.251   5.690
 1743SOL    HW2 5562   0.903   3.321   5.572
 1744SOL     OW 5563   0.661   3.652   6.539
 1744SOL    HW1 5564   0.615   3.740   6.526
 1744SOL    HW2 5565   0.760   3.664   6.532
 1745SOL     OW 5566   0.859   2.818   6.447
 1745SOL    HW1 5567   0.913   2.749   6.495
 1745SOL    HW2 5568   0.827   2.887   6.513
 1746SOL     OW 5569   1.083   2.846   5.673
 1746SOL    HW1 5570   1.060   2.899   5.591
 1746SOL    HW2 5571   1.164   2.790   5.654
 1747SOL     OW 5572   1.861   3.431   6.437
 1747SOL    HW1 5573   1.790   3.419   6.367
 1747SOL    HW2 5574   1.862   3.352   6.497
 1748SOL     OW 5575   0.221   3.176   7.430
 1748SOL    HW1 5576   0.156   3.103   7.409
 1748SOL    HW2 5577   0.225   3.190   7.528
 1749SOL     OW 5578   0.079   3.102   6.239
 1749SOL    HW1 5579   0.078   3.055   6.327
 1749SOL    HW2 5580   0.161   3.074   6.188
 1750SOL     OW 5581   0.672   3.253   7.210
 1750SOL    HW1 5582   0.594   3.203   7.248
 1750SOL    HW2 5583   0.669   3.348   7.241
 1751SOL     OW 5584   1.824   2.054   6.813
 1751SOL    HW1 5585   1.820   1.964   6.857
 1751SOL    HW2 5586   1.827   2.043   6.714
 1752SOL     OW 5587   0.428   2.286   6.106
 1752SOL    HW1 5588   0.458   2.214   6.044
 1752SOL    HW2 5589   0.389   2.246   6.189
 1753SOL     OW 5590   1.705   3.349   6.690
 1753SOL    HW1 5591   1.612   3.324   6.663
 1753SOL    HW2 5592   1.731   3.299   6.772
 1754SOL     OW 5593   0.317   2.409   6.866
 1754SOL    HW1 5594   0.355   2.350   6.938
 1754SOL    HW2 5595   0.357   2.383   6.778
 1755SOL     OW 5596   0.812   3.448   6.273
 1755SOL    HW1 5597   0.844   3.458   6.179
 1755SOL    HW2 5598   0.733   3.386   6.275
 1756SOL     OW 5599   1.424   2.076   6.698
 1756SOL    HW1 5600   1.476   2.011   6.753
 1756SOL    HW2 5601   1.375   2.139   6.759
 1757SOL     OW 5602   1.001   1.896   6.740
 1757SOL    HW1 5603   0.938   1.824   6.709
 1757SOL    HW2 5604   1.094   1.860   6.740
 1758SOL     OW 5605   0.770   3.192   5.887
 1758SOL    HW1 5606   0.724   3.105   5.904
 1758SOL    HW2 5607   0.861   3.189   5.928
 1759SOL     OW 5608   0.618   3.429   6.870
 1759SOL    HW1 5609   0.613   3.511   6.927
 1759SOL    HW2 5610   0.707   3.426   6.825
 1760SOL     OW 5611   1.352   1.914   5.754
 1760SOL    HW1 5612   1.387   1.873   5.670
 1760SOL    HW2 5613   1.262   1.876   5.774
 1761SOL     OW 5614   1.300   2.315   6.277
 1761SOL    HW1 5615   1.241   2.395   6.281
 1761SOL    HW2 5616   1.315   2.280   6.370
 1762SOL     OW 5617   1.593   2.083   6.468
 1762SOL    HW1 5618   1.509   2.082   6.522
 1762SOL    HW2 5619   1.595   2.166   6.412
 1763SOL     OW 5620   0.039   2.939   5.886
 1763SOL    HW1 5621   0.138   2.928   5.877
 1763SOL    HW2 5622  -0.001   2.853   5.918
 1764SOL     OW 5623   0.875   3.508   5.923
 1764SOL    HW1 5624   0.798   3.473   5.869
 1764SOL    HW2 5625   0.843   3.579   5.985
 1765SOL     OW 5626   0.230   2.490   7.561
 1765SOL    HW1 5627   0.137   2.488   7.598
 1765SOL    HW2 5628   0.231   2.451   7.469
 1766SOL     OW 5629   1.755   2.469   7.679
 1766SOL    HW1 5630   1.743   2.456   7.580
 1766SOL    HW2 5631   1.725   2.388   7.728
 1767SOL     OW 5632   0.231   3.575   7.931
 1767SOL    HW1 5633   0.265   3.652   7.985
 1767SOL    HW2 5634   0.275   3.575   7.841
 1768SOL     OW 5635   0.230   3.296   7.986
 1768SOL    HW1 5636   0.204   3.392   7.986
 1768SOL    HW2 5637   0.159   3.242   8.031
 1769SOL     OW 5638   0.606   2.826   7.571
 1769SOL    HW1 5639   0.613   2.910   7.517
 1769SOL    HW2 5640   0.652   2.839   7.659
 1770SOL     OW 5641   1.842   3.629   7.807
 1770SOL    HW1 5642   1.896   3.600   7.887
 1770SOL    HW2 5643   1.872   3.719   7.778
 1771SOL     OW 5644   0.027   3.458   7.565
 1771SOL    HW1 5645   0.008   3.362   7.586
 1771SOL    HW2 5646  -0.006   3.516   7.640
 1772SOL     OW 5647   1.689   2.784   8.060
 1772SOL    HW1 5648   1.784   2.755   8.068
 1772SOL    HW2 5649   1.681   2.849   7.985
 1773SOL     OW 5650   1.641   2.970   7.880
 1773SOL    HW1 5651   1.727   2.972   7.828
 1773SOL    HW2 5652   1.655   3.017   7.968
 1774SOL     OW 5653   0.809   1.866   7.950
 1774SOL    HW1 5654   0.849   1.957   7.941
 1774SOL    HW2 5655   0.709   1.874   7.956
 1775SOL     OW 5656   1.525   2.861   7.638
 1775SOL    HW1 5657   1.462   2.785   7.651
 1775SOL    HW2 5658   1.573   2.879   7.724
 1776SOL     OW 5659   0.598   2.591   7.718
 1776SOL    HW1 5660   0.622   2.660   7.650
 1776SOL    HW2 5661   0.520   2.624   7.772
 1777SOL     OW 5662   1.576   3.524   7.755
 1777SOL    HW1 5663   1.665   3.570   7.758
 1777SOL    HW2 5664   1.555   3.500   7.660
 1778SOL     OW 5665   0.076   2.673   8.237
 1778SOL    HW1 5666   0.175   2.661   8.246
 1778SOL    HW2 5667   0.052   2.768   8.258
 1779SOL     OW 5668   0.865   2.210   7.643
 1779SOL    HW1 5669   0.924   2.273   7.594
 1779SOL    HW2 5670   0.884   2.116   7.614
 1780SOL     OW 5671   0.321   2.805   7.690
 1780SOL    HW1 5672   0.403   2.844   7.648
 1780SOL    HW2 5673   0.294   2.723   7.641
 1781SOL     OW 5674   1.111   3.638   7.685
 1781SOL    HW1 5675   1.051   3.576   7.735
 1781SOL    HW2 5676   1.142   3.594   7.600
 1782SOL     OW 5677   1.632   3.239   7.529
 1782SOL    HW1 5678   1.600   3.333   7.519
 1782SOL    HW2 5679   1.556   3.176   7.517
 1783SOL     OW 5680   0.464   3.605   7.771
 1783SOL    HW1 5681   0.497   3.644   7.857
 1783SOL    HW2 5682   0.540   3.598   7.706
 1784SOL     OW 5683   1.400   1.969   7.874
 1784SOL    HW1 5684   1.376   1.932   7.784
 1784SOL    HW2 5685   1.499   1.985   7.878
 1785SOL     OW 5686   0.382   2.562   7.928
 1785SOL    HW1 5687   0.427   2.472   7.925
 1785SOL    HW2 5688   0.288   2.551   7.961
 1786SOL     OW 5689   0.614   1.984   7.565
 1786SOL    HW1 5690   0.712   1.962   7.572
 1786SOL    HW2 5691   0.583   1.967   7.472
 1787SOL     OW 5692   0.539   1.926   7.960
 1787SOL    HW1 5693   0.458   1.927   8.018
 1787SOL    HW2 5694   0.542   2.009   7.905
 1788SOL     OW 5695   1.434   3.050   7.489
 1788SOL    HW1 5696   1.466   2.974   7.546
 1788SOL    HW2 5697   1.342   3.077   7.519
 1789SOL     OW 5698   0.297   1.897   7.619
 1789SOL    HW1 5699   0.346   1.981   7.598
 1789SOL    HW2 5700   0.359   1.832   7.664
 1790SOL     OW 5701   0.935   2.098   7.928
 1790SOL    HW1 5702   0.887   2.139   7.850
 1790SOL    HW2 5703   1.034   2.096   7.909
 1791SOL     OW 5704   0.459   3.014   8.189
 1791SOL    HW1 5705   0.388   2.987   8.254
 1791SOL    HW2 5706   0.433   2.986   8.096
 1792SOL     OW 5707   1.271   3.659   8.039
 1792SOL    HW1 5708   1.315   3.723   7.975
 1792SOL    HW2 5709   1.221   3.711   8.109
 1793SOL     OW 5710   1.032   2.411   7.464
 1793SOL    HW1 5711   0.991   2.493   7.425
 1793SOL    HW2 5712   1.096   2.437   7.537
 1794SOL     OW 5713   1.857   2.695   7.825
 1794SOL    HW1 5714   1.899   2.631   7.889
 1794SOL    HW2 5715   1.819   2.644   7.747
 1795SOL     OW 5716   0.488   3.247   7.622
 1795SOL    HW1 5717   0.401   3.232   7.669
 1795SOL    HW2 5718   0.471   3.273   7.527
 1796SOL     OW 5719   1.390   2.437   7.526
 1796SOL    HW1 5720   1.336   2.416   7.607
 1796SOL    HW2 5721   1.481   2.396   7.535
 1797SOL     OW 5722   0.527   2.118   7.776
 1797SOL    HW1 5723   0.554   2.059   7.701
 1797SOL    HW2 5724   0.527   2.213   7.745
 1798SOL     OW 5725   0.705   2.912   7.816
 1798SOL    HW1 5726   0.691   2.919   7.915
 1798SOL    HW2 5727   0.789   2.861   7.798
 1799SOL     OW 5728   0.367   2.962   7.949
 1799SOL    HW1 5729   0.360   3.045   7.893
 1799SOL    HW2 5730   0.371   2.882   7.889
 1800SOL     OW 5731   1.252   3.210   7.836
 1800SOL    HW1 5732   1.302   3.287   7.876
 1800SOL    HW2 5733   1.157   3.212   7.868
 1801SOL     OW 5734   1.582   2.501   7.920
 1801SOL    HW1 5735   1.551   2.562   7.993
 1801SOL    HW2 5736   1.632   2.553   7.851
 1802SOL     OW 5737   1.209   2.387   7.723
 1802SOL    HW1 5738   1.222   2.303   7.777
 1802SOL    HW2 5739   1.180   2.461   7.783
 1803SOL     OW 5740   1.622   2.229   7.822
 1803SOL    HW1 5741   1.624   2.153   7.886
 1803SOL    HW2 5742   1.574   2.306   7.862
 1804SOL     OW 5743   1.540   2.136   7.573
 1804SOL    HW1 5744   1.479   2.061   7.596
 1804SOL    HW2 5745   1.562   2.188   7.656
 1805SOL     OW 5746   1.303   2.700   7.490
 1805SOL    HW1 5747   1.337   2.607   7.505
 1805SOL    HW2 5748   1.321   2.727   7.395
 1806SOL     OW 5749   0.008   3.188   7.648
 1806SOL    HW1 5750  -0.085   3.209   7.617
 1806SOL    HW2 5751   0.018   3.089   7.661
 1807SOL     OW 5752   0.815   2.434   7.773
 1807SOL    HW1 5753   0.822   2.345   7.727
 1807SOL    HW2 5754   0.721   2.468   7.765
 1808SOL     OW 5755   0.473   2.362   7.639
 1808SOL    HW1 5756   0.534   2.442   7.643
 1808SOL    HW2 5757   0.378   2.393   7.646
 1809SOL     OW 5758   1.302   2.717   7.757
 1809SOL    HW1 5759   1.216   2.686   7.799
 1809SOL    HW2 5760   1.298   2.703   7.658
 1810SOL     OW 5761   1.726   1.997   7.971
 1810SOL    HW1 5762   1.799   1.980   7.904
 1810SOL    HW2 5763   1.695   1.910   8.009
 1811SOL     OW 5764   1.388   3.435   7.925
 1811SOL    HW1 5765   1.455   3.447   7.851
 1811SOL    HW2 5766   1.348   3.524   7.948
 1812SOL     OW 5767   0.672   3.478   7.602
 1812SOL    HW1 5768   0.681   3.488   7.503
 1812SOL    HW2 5769   0.632   3.389   7.623
 1813SOL     OW 5770   1.194   3.474   7.479
 1813SOL    HW1 5771   1.200   3.381   7.516
 1813SOL    HW2 5772   1.135   3.474   7.399
 1814SOL     OW 5773   0.916   2.772   7.739
 1814SOL    HW1 5774   0.979   2.810   7.671
 1814SOL    HW2 5775   0.956   2.689   7.778
 1815SOL     OW 5776   1.504   3.469   7.492
 1815SOL    HW1 5777   1.412   3.506   7.499
 1815SOL    HW2 5778   1.542   3.489   7.402
 1816SOL     OW 5779   0.590   3.349   7.939
 1816SOL    HW1 5780   0.632   3.291   7.869
 1816SOL    HW2 5781   0.546   3.428   7.895
 1817SOL     OW 5782   0.255   3.210   7.738
 1817SOL    HW1 5783   0.159   3.211   7.711
 1817SOL    HW2 5784   0.267   3.263   7.822
 1818SOL     OW 5785   0.075   2.207   7.481
 1818SOL    HW1 5786  -0.017   2.179   7.452
 1818SOL    HW2 5787   0.106   2.284   7.425
 1819SOL     OW 5788   0.072   2.028   7.766
 1819SOL    HW1 5789   0.055   2.111   7.712
 1819SOL    HW2 5790   0.162   1.991   7.744
 1820SOL     OW 5791   1.183   3.197   7.567
 1820SOL    HW1 5792   1.084   3.186   7.569
 1820SOL    HW2 5793   1.217   3.212   7.660
 1821SOL     OW 5794   1.225   2.187   7.897
 1821SOL    HW1 5795   1.290   2.113   7.886
 1821SOL    HW2 5796   1.245   2.237   7.981
 1822SOL     OW 5797   0.594   2.607   8.100
 1822SOL    HW1 5798   0.644   2.692   8.081
 1822SOL    HW2 5799   0.506   2.609   8.052
 1823SOL     OW 5800   0.859   3.236   7.464
 1823SOL    HW1 5801   0.813   3.251   7.552
 1823SOL    HW2 5802   0.903   3.321   7.434
 1824SOL     OW 5803   1.083   2.846   7.535
 1824SOL    HW1 5804   1.060   2.899   7.453
 1824SOL    HW2 5805   1.164   2.790   7.516
 1825SOL     OW 5806   0.428   2.286   7.968
 1825SOL    HW1 5807   0.458   2.214   7.906
 1825SOL    HW2 5808   0.389   2.246   8.051
 1826SOL     OW 5809   0.770   3.192   7.749
 1826SOL    HW1 5810   0.724   3.105   7.766
 1826SOL    HW2 5811   0.861   3.189   7.790
 1827SOL     OW 5812   1.352   1.914   7.616
 1827SOL    HW1 5813   1.387   1.873   7.532
 1827SOL    HW2 5814   1.262   1.876   7.636
 1828SOL     OW 5815   0.039   2.939   7.748
 1828SOL    HW1 5816   0.138   2.928   7.739
 1828SOL    HW2 5817  -0.001   2.853   7.780
 1829SOL     OW 5818   0.875   3.508   7.785
 1829SOL    HW1 5819   0.798   3.473   7.731
 1829SOL    HW2 5820   0.843   3.579   7.847
 1830SOL     OW 5821   0.230   4.352   0.113
 1830SOL    HW1 5822   0.137   4.350   0.150
 1830SOL    HW2 5823   0.231   4.313   0.021
 1831SOL     OW 5824   0.225   3.999   0.996
 1831SOL    HW1 5825   0.260   3.982   1.088
 1831SOL    HW2 5826   0.137   3.954   0.984
 1832SOL     OW 5827   0.019   4.092   0.647
 1832SOL    HW1 5828  -0.063   4.135   0.686
 1832SOL    HW2 5829  -0.009   4.019   0.584
 1833SOL     OW 5830   0.569   4.999   1.165
 1833SOL    HW1 5831   0.476   4.992   1.128
 1833SOL    HW2 5832   0.580   5.088   1.209
 1834SOL     OW 5833   1.555   5.235   0.703
 1834SOL    HW1 5834   1.498   5.219   0.784
 1834SOL    HW2 5835   1.496   5.245   0.623
 1835SOL     OW 5836   1.135   4.427   0.717
 1835SOL    HW1 5837   1.192   4.505   0.692
 1835SOL    HW2 5838   1.075   4.453   0.793
 1836SOL     OW 5839   1.755   4.331   0.231
 1836SOL    HW1 5840   1.743   4.318   0.132
 1836SOL    HW2 5841   1.725   4.250   0.280
 1837SOL     OW 5842   0.768   4.868   1.023
 1837SOL    HW1 5843   0.690   4.885   1.083
 1837SOL    HW2 5844   0.802   4.955   0.987
 1838SOL     OW 5845   0.850   4.522   1.823
 1838SOL    HW1 5846   0.846   4.598   1.888
 1838SOL    HW2 5847   0.872   4.558   1.732
 1839SOL     OW 5848   0.685   4.736   0.665
 1839SOL    HW1 5849   0.754   4.720   0.735
 1839SOL    HW2 5850   0.612   4.793   0.703
 1840SOL     OW 5851   0.686   4.885   1.803
 1840SOL    HW1 5852   0.746   4.964   1.817
 1840SOL    HW2 5853   0.600   4.916   1.762
 1841SOL     OW 5854   0.335   5.159   1.061
 1841SOL    HW1 5855   0.257   5.128   1.008
 1841SOL    HW2 5856   0.393   5.217   1.004
 1842SOL     OW 5857   1.460   5.229   1.339
 1842SOL    HW1 5858   1.484   5.323   1.365
 1842SOL    HW2 5859   1.444   5.175   1.421
 1843SOL     OW 5860   0.438   4.116   1.499
 1843SOL    HW1 5861   0.520   4.060   1.508
 1843SOL    HW2 5862   0.357   4.058   1.503
 1844SOL     OW 5863   1.603   4.171   0.737
 1844SOL    HW1 5864   1.529   4.217   0.687
 1844SOL    HW2 5865   1.654   4.239   0.790
 1845SOL     OW 5866   1.127   5.065   1.690
 1845SOL    HW1 5867   1.174   5.065   1.778
 1845SOL    HW2 5868   1.079   4.978   1.679
 1846SOL     OW 5869   0.230   5.158   0.538
 1846SOL    HW1 5870   0.204   5.254   0.538
 1846SOL    HW2 5871   0.159   5.104   0.583
 1847SOL     OW 5872   0.240   4.815   0.886
 1847SOL    HW1 5873   0.254   4.731   0.938
 1847SOL    HW2 5874   0.185   4.879   0.941
 1848SOL     OW 5875   0.606   4.688   0.123
 1848SOL    HW1 5876   0.613   4.772   0.069
 1848SOL    HW2 5877   0.652   4.701   0.211
 1849SOL     OW 5878   1.594   3.838   1.480
 1849SOL    HW1 5879   1.576   3.905   1.408
 1849SOL    HW2 5880   1.591   3.884   1.569
 1850SOL     OW 5881   0.122   4.367   0.563
 1850SOL    HW1 5882   0.077   4.279   0.580
 1850SOL    HW2 5883   0.121   4.421   0.647
 1851SOL     OW 5884   0.027   5.320   0.117
 1851SOL    HW1 5885   0.008   5.224   0.138
 1851SOL    HW2 5886  -0.006   5.378   0.192
 1852SOL     OW 5887   1.689   4.646   0.612
 1852SOL    HW1 5888   1.784   4.617   0.620
 1852SOL    HW2 5889   1.681   4.711   0.537
 1853SOL     OW 5890   1.641   4.832   0.432
 1853SOL    HW1 5891   1.727   4.834   0.380
 1853SOL    HW2 5892   1.655   4.879   0.520
 1854SOL     OW 5893   0.113   4.461   1.597
 1854SOL    HW1 5894   0.201   4.448   1.642
 1854SOL    HW2 5895   0.100   4.558   1.575
 1855SOL     OW 5896   0.613   5.089   0.726
 1855SOL    HW1 5897   0.564   5.002   0.735
 1855SOL    HW2 5898   0.590   5.132   0.639
 1856SOL     OW 5899   1.293   4.952   1.423
 1856SOL    HW1 5900   1.330   4.879   1.365
 1856SOL    HW2 5901   1.345   4.957   1.508
 1857SOL     OW 5902   0.809   3.728   0.502
 1857SOL    HW1 5903   0.849   3.819   0.493
 1857SOL    HW2 5904   0.709   3.736   0.508
 1858SOL     OW 5905   0.197   4.700   1.264
 1858SOL    HW1 5906   0.286   4.655   1.250
 1858SOL    HW2 5907   0.124   4.635   1.245
 1859SOL     OW 5908   1.525   4.723   0.190
 1859SOL    HW1 5909   1.462   4.647   0.203
 1859SOL    HW2 5910   1.573   4.741   0.276
 1860SOL     OW 5911   0.317   3.975   1.801
 1860SOL    HW1 5912   0.388   4.046   1.807
 1860SOL    HW2 5913   0.229   4.014   1.829
 1861SOL     OW 5914   1.466   5.141   0.953
 1861SOL    HW1 5915   1.407   5.147   1.033
 1861SOL    HW2 5916   1.451   5.053   0.907
 1862SOL     OW 5917   0.598   4.453   0.270
 1862SOL    HW1 5918   0.622   4.522   0.202
 1862SOL    HW2 5919   0.520   4.486   0.324
 1863SOL     OW 5920   1.281   4.069   0.944
 1863SOL    HW1 5921   1.195   4.019   0.931
 1863SOL    HW2 5922   1.343   4.015   1.000
 1864SOL     OW 5923   0.807   4.329   1.465
 1864SOL    HW1 5924   0.760   4.326   1.554
 1864SOL    HW2 5925   0.756   4.274   1.399
 1865SOL     OW 5926   1.394   4.193   1.674
 1865SOL    HW1 5927   1.374   4.236   1.762
 1865SOL    HW2 5928   1.472   4.131   1.683
 1866SOL     OW 5929   0.973   4.614   1.572
 1866SOL    HW1 5930   1.019   4.530   1.543
 1866SOL    HW2 5931   0.917   4.648   1.497
 1867SOL     OW 5932   0.991   4.134   1.242
 1867SOL    HW1 5933   0.914   4.168   1.296
 1867SOL    HW2 5934   0.957   4.083   1.163
 1868SOL     OW 5935   1.041   4.425   0.429
 1868SOL    HW1 5936   1.067   4.421   0.525
 1868SOL    HW2 5937   0.956   4.374   0.415
 1869SOL     OW 5938   0.076   4.535   0.789
 1869SOL    HW1 5939   0.175   4.523   0.798
 1869SOL    HW2 5940   0.052   4.630   0.810
 1870SOL     OW 5941   0.865   4.072   0.195
 1870SOL    HW1 5942   0.924   4.135   0.146
 1870SOL    HW2 5943   0.884   3.978   0.166
 1871SOL     OW 5944   1.719   4.309   1.831
 1871SOL    HW1 5945   1.693   4.398   1.795
 1871SOL    HW2 5946   1.717   4.241   1.758
 1872SOL     OW 5947   1.362   4.868   0.545
 1872SOL    HW1 5948   1.445   4.839   0.497
 1872SOL    HW2 5949   1.313   4.935   0.489
 1873SOL     OW 5950   0.550   3.920   0.885
 1873SOL    HW1 5951   0.545   3.915   0.985
 1873SOL    HW2 5952   0.552   4.016   0.856
 1874SOL     OW 5953   1.008   5.180   0.477
 1874SOL    HW1 5954   0.962   5.252   0.425
 1874SOL    HW2 5955   1.004   5.200   0.575
 1875SOL     OW 5956   1.795   4.790   0.873
 1875SOL    HW1 5957   1.733   4.775   0.797
 1875SOL    HW2 5958   1.743   4.801   0.958
 1876SOL     OW 5959   1.227   5.274   1.506
 1876SOL    HW1 5960   1.233   5.197   1.570
 1876SOL    HW2 5961   1.175   5.248   1.426
 1877SOL     OW 5962   0.321   4.667   0.242
 1877SOL    HW1 5963   0.403   4.706   0.200
 1877SOL    HW2 5964   0.294   4.585   0.193
 1878SOL     OW 5965   1.458   4.459   0.728
 1878SOL    HW1 5966   1.453   4.394   0.803
 1878SOL    HW2 5967   1.538   4.518   0.741
 1879SOL     OW 5968   0.461   4.990   1.727
 1879SOL    HW1 5969   0.411   4.991   1.641
 1879SOL    HW2 5970   0.398   4.972   1.803
 1880SOL     OW 5971   1.111   5.500   0.237
 1880SOL    HW1 5972   1.051   5.438   0.287
 1880SOL    HW2 5973   1.142   5.456   0.152
 1881SOL     OW 5974   0.202   4.009   1.498
 1881SOL    HW1 5975   0.122   4.069   1.485
 1881SOL    HW2 5976   0.192   3.960   1.584
 1882SOL     OW 5977   1.632   5.101   0.081
 1882SOL    HW1 5978   1.600   5.195   0.071
 1882SOL    HW2 5979   1.556   5.038   0.069
 1883SOL     OW 5980   1.400   3.831   0.426
 1883SOL    HW1 5981   1.376   3.794   0.336
 1883SOL    HW2 5982   1.499   3.847   0.430
 1884SOL     OW 5983   0.382   4.424   0.480
 1884SOL    HW1 5984   0.427   4.334   0.477
 1884SOL    HW2 5985   0.288   4.413   0.513
 1885SOL     OW 5986   1.547   3.946   1.729
 1885SOL    HW1 5987   1.542   3.983   1.821
 1885SOL    HW2 5988   1.475   3.877   1.717
 1886SOL     OW 5989   0.614   3.846   0.117
 1886SOL    HW1 5990   0.712   3.824   0.124
 1886SOL    HW2 5991   0.583   3.829   0.024
 1887SOL     OW 5992   0.781   3.988   1.749
 1887SOL    HW1 5993   0.848   3.927   1.792
 1887SOL    HW2 5994   0.708   4.007   1.814
 1888SOL     OW 5995   1.351   4.314   1.433
 1888SOL    HW1 5996   1.379   4.271   1.518
 1888SOL    HW2 5997   1.376   4.410   1.434
 1889SOL     OW 5998   0.803   5.126   0.924
 1889SOL    HW1 5999   0.893   5.140   0.882
 1889SOL    HW2 6000   0.732   5.128   0.853
 1890SOL     OW 6001   0.922   4.227   0.899
 1890SOL    HW1 6002   0.897   4.218   0.803
 1890SOL    HW2 6003   0.970   4.145   0.930
 1891SOL     OW 6004   0.539   3.788   0.512
 1891SOL    HW1 6005   0.458   3.789   0.570
 1891SOL    HW2 6006   0.542   3.871   0.457
 1892SOL     OW 6007   1.434   4.912   0.041
 1892SOL    HW1 6008   1.466   4.836   0.098
 1892SOL    HW2 6009   1.342   4.939   0.071
 1893SOL     OW 6010   0.297   3.759   0.171
 1893SOL    HW1 6011   0.346   3.843   0.150
 1893SOL    HW2 6012   0.359   3.694   0.216
 1894SOL     OW 6013   0.935   3.960   0.480
 1894SOL    HW1 6014   0.887   4.001   0.402
 1894SOL    HW2 6015   1.034   3.958   0.461
 1895SOL     OW 6016   1.076   4.407   1.464
 1895SOL    HW1 6017   0.996   4.346   1.467
 1895SOL    HW2 6018   1.157   4.354   1.440
 1896SOL     OW 6019   1.227   5.294   0.793
 1896SOL    HW1 6020   1.248   5.368   0.728
 1896SOL    HW2 6021   1.295   5.294   0.866
 1897SOL     OW 6022   0.459   4.876   0.741
 1897SOL    HW1 6023   0.388   4.849   0.806
 1897SOL    HW2 6024   0.433   4.848   0.648
 1898SOL     OW 6025   1.032   4.273   0.016
 1898SOL    HW1 6026   0.991   4.355  -0.023
 1898SOL    HW2 6027   1.096   4.299   0.089
 1899SOL     OW 6028   0.078   4.280   1.386
 1899SOL    HW1 6029   0.170   4.279   1.345
 1899SOL    HW2 6030   0.072   4.354   1.453
 1900SOL     OW 6031   0.561   3.946   1.147
 1900SOL    HW1 6032   0.599   3.862   1.184
 1900SOL    HW2 6033   0.473   3.965   1.191
 1901SOL     OW 6034   0.866   4.178   0.642
 1901SOL    HW1 6035   0.834   4.250   0.580
 1901SOL    HW2 6036   0.890   4.097   0.589
 1902SOL     OW 6037   1.017   3.763   0.753
 1902SOL    HW1 6038   0.945   3.768   0.684
 1902SOL    HW2 6039   0.993   3.694   0.822
 1903SOL     OW 6040   1.429   4.897   0.867
 1903SOL    HW1 6041   1.374   4.813   0.860
 1903SOL    HW2 6042   1.455   4.926   0.775
 1904SOL     OW 6043   1.466   4.314   0.992
 1904SOL    HW1 6044   1.436   4.219   0.999
 1904SOL    HW2 6045   1.539   4.330   1.058
 1905SOL     OW 6046   1.857   4.557   0.377
 1905SOL    HW1 6047   1.899   4.493   0.441
 1905SOL    HW2 6048   1.819   4.506   0.299
 1906SOL     OW 6049   0.488   5.109   0.174
 1906SOL    HW1 6050   0.401   5.094   0.221
 1906SOL    HW2 6051   0.471   5.135   0.079
 1907SOL     OW 6052   1.664   5.004   0.657
 1907SOL    HW1 6053   1.763   5.012   0.671
 1907SOL    HW2 6054   1.619   5.088   0.688
 1908SOL     OW 6055   1.390   4.299   0.078
 1908SOL    HW1 6056   1.336   4.278   0.159
 1908SOL    HW2 6057   1.481   4.258   0.087
 1909SOL     OW 6058   0.527   3.980   0.328
 1909SOL    HW1 6059   0.554   3.921   0.253
 1909SOL    HW2 6060   0.527   4.075   0.297
 1910SOL     OW 6061   1.754   4.947   1.588
 1910SOL    HW1 6062   1.845   4.908   1.575
 1910SOL    HW2 6063   1.762   5.043   1.612
 1911SOL     OW 6064   1.064   5.071   1.340
 1911SOL    HW1 6065   0.984   5.048   1.395
 1911SOL    HW2 6066   1.147   5.045   1.389
 1912SOL     OW 6067   1.111   4.919   1.100
 1912SOL    HW1 6068   1.071   4.963   1.181
 1912SOL    HW2 6069   1.070   4.956   1.017
 1913SOL     OW 6070   1.638   4.823   1.079
 1913SOL    HW1 6071   1.643   4.904   1.138
 1913SOL    HW2 6072   1.552   4.825   1.028
 1914SOL     OW 6073   0.915   3.813   1.402
 1914SOL    HW1 6074   0.940   3.793   1.307
 1914SOL    HW2 6075   0.987   3.869   1.444
 1915SOL     OW 6076   0.980   4.840   1.719
 1915SOL    HW1 6077   0.881   4.846   1.729
 1915SOL    HW2 6078   1.003   4.760   1.663
 1916SOL     OW 6079   0.705   4.774   0.368
 1916SOL    HW1 6080   0.691   4.781   0.467
 1916SOL    HW2 6081   0.789   4.723   0.350
 1917SOL     OW 6082   0.410   4.537   1.251
 1917SOL    HW1 6083   0.496   4.549   1.301
 1917SOL    HW2 6084   0.368   4.450   1.278
 1918SOL     OW 6085   1.274   4.110   1.262
 1918SOL    HW1 6086   1.295   4.184   1.326
 1918SOL    HW2 6087   1.185   4.127   1.219
 1919SOL     OW 6088   0.064   5.288   1.331
 1919SOL    HW1 6089   0.018   5.370   1.297
 1919SOL    HW2 6090   0.162   5.307   1.340
 1920SOL     OW 6091   0.367   4.824   0.501
 1920SOL    HW1 6092   0.360   4.907   0.445
 1920SOL    HW2 6093   0.371   4.744   0.441
 1921SOL     OW 6094   0.566   4.261   0.865
 1921SOL    HW1 6095   0.578   4.327   0.791
 1921SOL    HW2 6096   0.612   4.295   0.948
 1922SOL     OW 6097   1.252   5.072   0.388
 1922SOL    HW1 6098   1.302   5.149   0.428
 1922SOL    HW2 6099   1.157   5.074   0.420
 1923SOL     OW 6100   1.272   5.169   1.142
 1923SOL    HW1 6101   1.319   5.182   1.229
 1923SOL    HW2 6102   1.206   5.095   1.151
 1924SOL     OW 6103   1.582   4.363   0.472
 1924SOL    HW1 6104   1.551   4.424   0.545
 1924SOL    HW2 6105   1.632   4.415   0.403
 1925SOL     OW 6106   0.354   5.234   1.329
 1925SOL    HW1 6107   0.333   5.190   1.242
 1925SOL    HW2 6108   0.451   5.260   1.332
 1926SOL     OW 6109   0.402   4.475   1.598
 1926SOL    HW1 6110   0.470   4.530   1.551
 1926SOL    HW2 6111   0.442   4.387   1.625
 1927SOL     OW 6112   1.587   4.503   1.670
 1927SOL    HW1 6113   1.495   4.541   1.665
 1927SOL    HW2 6114   1.647   4.550   1.605
 1928SOL     OW 6115   1.013   3.829   1.770
 1928SOL    HW1 6116   1.019   3.914   1.718
 1928SOL    HW2 6117   1.045   3.753   1.713
 1929SOL     OW 6118   0.504   3.774   1.740
 1929SOL    HW1 6119   0.462   3.717   1.670
 1929SOL    HW2 6120   0.438   3.843   1.772
 1930SOL     OW 6121   0.573   4.594   1.029
 1930SOL    HW1 6122   0.617   4.683   1.020
 1930SOL    HW2 6123   0.510   4.594   1.106
 1931SOL     OW 6124   1.360   4.586   1.045
 1931SOL    HW1 6125   1.285   4.586   0.979
 1931SOL    HW2 6126   1.397   4.494   1.054
 1932SOL     OW 6127   1.209   4.249   0.275
 1932SOL    HW1 6128   1.222   4.165   0.329
 1932SOL    HW2 6129   1.180   4.323   0.335
 1933SOL     OW 6130   0.307   3.937   1.231
 1933SOL    HW1 6131   0.284   3.974   1.321
 1933SOL    HW2 6132   0.277   3.842   1.225
 1934SOL     OW 6133   0.037   5.034   1.282
 1934SOL    HW1 6134   0.090   4.985   1.350
 1934SOL    HW2 6135   0.059   5.132   1.287
 1935SOL     OW 6136   0.732   4.358   1.064
 1935SOL    HW1 6137   0.791   4.332   0.988
 1935SOL    HW2 6138   0.704   4.454   1.053
 1936SOL     OW 6139   1.728   4.659   1.854
 1936SOL    HW1 6140   1.682   4.652   1.765
 1936SOL    HW2 6141   1.666   4.703   1.920
 1937SOL     OW 6142   0.307   3.787   0.618
 1937SOL    HW1 6143   0.296   3.881   0.651
 1937SOL    HW2 6144   0.302   3.724   0.695
 1938SOL     OW 6145   1.622   4.091   0.374
 1938SOL    HW1 6146   1.624   4.015   0.438
 1938SOL    HW2 6147   1.574   4.168   0.414
 1939SOL     OW 6148   1.023   4.490   0.966
 1939SOL    HW1 6149   1.038   4.511   1.062
 1939SOL    HW2 6150   0.993   4.395   0.957
 1940SOL     OW 6151   1.859   5.242   1.605
 1940SOL    HW1 6152   1.873   5.269   1.510
 1940SOL    HW2 6153   1.942   5.264   1.658
 1941SOL     OW 6154   0.350   4.622   1.804
 1941SOL    HW1 6155   0.426   4.666   1.852
 1941SOL    HW2 6156   0.385   4.575   1.722
 1942SOL     OW 6157   1.540   3.998   0.125
 1942SOL    HW1 6158   1.479   3.923   0.148
 1942SOL    HW2 6159   1.562   4.050   0.208
 1943SOL     OW 6160   1.303   4.562   0.042
 1943SOL    HW1 6161   1.337   4.469   0.057
 1943SOL    HW2 6162   1.321   4.589  -0.053
 1944SOL     OW 6163   1.068   5.057   0.849
 1944SOL    HW1 6164   1.075   4.973   0.794
 1944SOL    HW2 6165   1.130   5.126   0.813
 1945SOL     OW 6166   0.319   4.534   0.949
 1945SOL    HW1 6167   0.412   4.570   0.954
 1945SOL    HW2 6168   0.313   4.449   1.001
 1946SOL     OW 6169   0.339   4.233   1.006
 1946SOL    HW1 6170   0.287   4.150   0.989
 1946SOL    HW2 6171   0.416   4.238   0.942
 1947SOL     OW 6172   1.138   4.104   1.678
 1947SOL    HW1 6173   1.093   4.167   1.742
 1947SOL    HW2 6174   1.231   4.135   1.661
 1948SOL     OW 6175   1.160   3.931   1.477
 1948SOL    HW1 6176   1.160   3.995   1.554
 1948SOL    HW2 6177   1.188   3.979   1.394
 1949SOL     OW 6178   0.008   5.050   0.200
 1949SOL    HW1 6179  -0.085   5.071   0.169
 1949SOL    HW2 6180   0.018   4.951   0.213
 1950SOL     OW 6181   1.002   4.520   1.238
 1950SOL    HW1 6182   1.043   4.488   1.324
 1950SOL    HW2 6183   0.906   4.493   1.235
 1951SOL     OW 6184   0.040   4.268   1.114
 1951SOL    HW1 6185   0.125   4.235   1.073
 1951SOL    HW2 6186   0.053   4.283   1.212
 1952SOL     OW 6187   0.189   4.244   1.722
 1952SOL    HW1 6188   0.248   4.204   1.652
 1952SOL    HW2 6189   0.131   4.315   1.681
 1953SOL     OW 6190   1.369   4.674   1.660
 1953SOL    HW1 6191   1.408   4.763   1.680
 1953SOL    HW2 6192   1.379   4.654   1.563
 1954SOL     OW 6193   0.815   4.296   0.325
 1954SOL    HW1 6194   0.822   4.207   0.279
 1954SOL    HW2 6195   0.721   4.330   0.317
 1955SOL     OW 6196   1.657   4.328   1.206
 1955SOL    HW1 6197   1.619   4.259   1.268
 1955SOL    HW2 6198   1.739   4.292   1.162
 1956SOL     OW 6199   0.252   5.288   1.744
 1956SOL    HW1 6200   0.222   5.345   1.820
 1956SOL    HW2 6201   0.245   5.191   1.770
 1957SOL     OW 6202   0.671   4.188   1.269
 1957SOL    HW1 6203   0.637   4.099   1.239
 1957SOL    HW2 6204   0.697   4.242   1.189
 1958SOL     OW 6205   0.473   4.224   0.191
 1958SOL    HW1 6206   0.534   4.304   0.195
 1958SOL    HW2 6207   0.378   4.255   0.198
 1959SOL     OW 6208   0.159   4.861   1.466
 1959SOL    HW1 6209   0.181   4.800   1.542
 1959SOL    HW2 6210   0.169   4.812   1.380
 1960SOL     OW 6211   1.347   4.783   1.234
 1960SOL    HW1 6212   1.371   4.720   1.160
 1960SOL    HW2 6213   1.257   4.823   1.216
 1961SOL     OW 6214   1.302   4.579   0.309
 1961SOL    HW1 6215   1.216   4.548   0.351
 1961SOL    HW2 6216   1.298   4.565   0.210
 1962SOL     OW 6217   0.083   4.982   1.022
 1962SOL    HW1 6218   0.078   4.981   1.122
 1962SOL    HW2 6219   0.000   4.941   0.984
 1963SOL     OW 6220   0.688   5.386   1.716
 1963SOL    HW1 6221   0.632   5.467   1.725
 1963SOL    HW2 6222   0.740   5.390   1.630
 1964SOL     OW 6223   0.903   3.810   0.133
 1964SOL    HW1 6224   0.954   3.811   0.047
 1964SOL    HW2 6225   0.959   3.768   0.204
 1965SOL     OW 6226   1.726   3.859   0.523
 1965SOL    HW1 6227   1.799   3.842   0.456
 1965SOL    HW2 6228   1.695   3.772   0.561
 1966SOL     OW 6229   1.280   4.651   0.672
 1966SOL    HW1 6230   1.340   4.570   0.674
 1966SOL    HW2 6231   1.320   4.720   0.612
 1967SOL     OW 6232   0.830   4.997   1.422
 1967SOL    HW1 6233   0.825   5.030   1.517
 1967SOL    HW2 6234   0.744   5.016   1.376
 1968SOL     OW 6235   1.841   3.899   0.963
 1968SOL    HW1 6236   1.880   3.814   0.927
 1968SOL    HW2 6237   1.743   3.901   0.944
 1969SOL     OW 6238   0.263   4.050   0.720
 1969SOL    HW1 6239   0.184   4.101   0.686
 1969SOL    HW2 6240   0.254   4.035   0.818
 1970SOL     OW 6241   1.194   5.336   0.031
 1970SOL    HW1 6242   1.200   5.243   0.068
 1970SOL    HW2 6243   1.135   5.336  -0.049
 1971SOL     OW 6244   0.822   4.726   1.372
 1971SOL    HW1 6245   0.862   4.725   1.280
 1971SOL    HW2 6246   0.832   4.818   1.412
 1972SOL     OW 6247   0.916   4.634   0.291
 1972SOL    HW1 6248   0.979   4.672   0.223
 1972SOL    HW2 6249   0.956   4.551   0.330
 1973SOL     OW 6250   0.372   5.012   1.490
 1973SOL    HW1 6251   0.359   5.105   1.456
 1973SOL    HW2 6252   0.288   4.960   1.477
 1974SOL     OW 6253   1.614   5.016   1.289
 1974SOL    HW1 6254   1.674   5.019   1.369
 1974SOL    HW2 6255   1.539   5.080   1.302
 1975SOL     OW 6256   1.039   4.822   0.696
 1975SOL    HW1 6257   0.969   4.775   0.750
 1975SOL    HW2 6258   1.098   4.754   0.653
 1976SOL     OW 6259   1.014   3.960   0.971
 1976SOL    HW1 6260   1.006   3.924   0.878
 1976SOL    HW2 6261   1.012   3.884   1.036
 1977SOL     OW 6262   1.709   4.109   1.381
 1977SOL    HW1 6263   1.782   4.178   1.385
 1977SOL    HW2 6264   1.737   4.034   1.322
 1978SOL     OW 6265   0.255   5.072   0.290
 1978SOL    HW1 6266   0.159   5.073   0.263
 1978SOL    HW2 6267   0.267   5.125   0.374
 1979SOL     OW 6268   0.105   4.737   1.726
 1979SOL    HW1 6269   0.028   4.704   1.780
 1979SOL    HW2 6270   0.190   4.707   1.768
 1980SOL     OW 6271   0.672   3.927   1.489
 1980SOL    HW1 6272   0.762   3.911   1.449
 1980SOL    HW2 6273   0.680   3.932   1.588
 1981SOL     OW 6274   0.075   4.069   0.033
 1981SOL    HW1 6275  -0.017   4.041   0.004
 1981SOL    HW2 6276   0.106   4.146  -0.023
 1982SOL     OW 6277   1.440   4.580   1.398
 1982SOL    HW1 6278   1.383   4.632   1.335
 1982SOL    HW2 6279   1.536   4.592   1.374
 1983SOL     OW 6280   0.072   3.890   0.318
 1983SOL    HW1 6281   0.055   3.973   0.264
 1983SOL    HW2 6282   0.162   3.853   0.296
 1984SOL     OW 6283   1.183   5.059   0.119
 1984SOL    HW1 6284   1.084   5.048   0.121
 1984SOL    HW2 6285   1.217   5.074   0.212
 1985SOL     OW 6286   0.613   4.566   1.431
 1985SOL    HW1 6287   0.669   4.647   1.414
 1985SOL    HW2 6288   0.672   4.486   1.434
 1986SOL     OW 6289   0.716   4.289   1.708
 1986SOL    HW1 6290   0.735   4.354   1.782
 1986SOL    HW2 6291   0.776   4.209   1.717
 1987SOL     OW 6292   1.450   4.944   1.633
 1987SOL    HW1 6293   1.441   4.934   1.732
 1987SOL    HW2 6294   1.546   4.937   1.607
 1988SOL     OW 6295   1.674   4.607   1.254
 1988SOL    HW1 6296   1.647   4.518   1.217
 1988SOL    HW2 6297   1.675   4.675   1.181
 1989SOL     OW 6298   1.225   4.049   0.449
 1989SOL    HW1 6299   1.290   3.975   0.438
 1989SOL    HW2 6300   1.245   4.099   0.533
 1990SOL     OW 6301   0.594   4.469   0.652
 1990SOL    HW1 6302   0.644   4.554   0.633
 1990SOL    HW2 6303   0.506   4.471   0.604
 1991SOL     OW 6304   1.777   4.066   1.642
 1991SOL    HW1 6305   1.760   4.097   1.548
 1991SOL    HW2 6306   1.693   4.029   1.680
 1992SOL     OW 6307   1.730   4.658   1.517
 1992SOL    HW1 6308   1.768   4.749   1.532
 1992SOL    HW2 6309   1.722   4.641   1.418
 1993SOL     OW 6310   0.859   5.098   0.016
 1993SOL    HW1 6311   0.813   5.113   0.104
 1993SOL    HW2 6312   0.903   5.183  -0.014
 1994SOL     OW 6313   0.859   4.680   0.861
 1994SOL    HW1 6314   0.913   4.611   0.909
 1994SOL    HW2 6315   0.827   4.749   0.927
 1995SOL     OW 6316   1.083   4.708   0.087
 1995SOL    HW1 6317   1.060   4.761   0.005
 1995SOL    HW2 6318   1.164   4.652   0.068
 1996SOL     OW 6319   0.221   5.038   1.844
 1996SOL    HW1 6320   0.156   4.965   1.823
 1996SOL    HW2 6321   0.225   5.052   1.942
 1997SOL     OW 6322   0.079   4.964   0.653
 1997SOL    HW1 6323   0.078   4.917   0.741
 1997SOL    HW2 6324   0.161   4.936   0.602
 1998SOL     OW 6325   0.672   5.115   1.624
 1998SOL    HW1 6326   0.594   5.065   1.662
 1998SOL    HW2 6327   0.669   5.210   1.655
 1999SOL     OW 6328   1.824   3.916   1.227
 1999SOL    HW1 6329   1.820   3.826   1.271
 1999SOL    HW2 6330   1.827   3.905   1.128
 2000SOL     OW 6331   0.428   4.148   0.520
 2000SOL    HW1 6332   0.458   4.076   0.458
 2000SOL    HW2 6333   0.389   4.108   0.603
 2001SOL     OW 6334   1.705   5.211   1.104
 2001SOL    HW1 6335   1.612   5.186   1.077
 2001SOL    HW2 6336   1.731   5.161   1.186
 2002SOL     OW 6337   0.317   4.271   1.280
 2002SOL    HW1 6338   0.355   4.212   1.352
 2002SOL    HW2 6339   0.357   4.245   1.192
 2003SOL     OW 6340   1.424   3.938   1.112
 2003SOL    HW1 6341   1.476   3.873   1.167
 2003SOL    HW2 6342   1.375   4.001   1.173
 2004SOL     OW 6343   1.001   3.758   1.154
 2004SOL    HW1 6344   0.938   3.686   1.123
 2004SOL    HW2 6345   1.094   3.722   1.154
 2005SOL     OW 6346   0.770   5.054   0.301
 2005SOL    HW1 6347   0.724   4.967   0.318
 2005SOL    HW2 6348   0.861   5.051   0.342
 2006SOL     OW 6349   0.618   5.291   1.284
 2006SOL    HW1 6350   0.613   5.373   1.341
 2006SOL    HW2 6351   0.707   5.288   1.239
 2007SOL     OW 6352   1.352   3.776   0.168
 2007SOL    HW1 6353   1.387   3.735   0.084
 2007SOL    HW2 6354   1.262   3.738   0.188
 2008SOL     OW 6355   1.300   4.177   0.691
 2008SOL    HW1 6356   1.241   4.257   0.695
 2008SOL    HW2 6357   1.315   4.142   0.784
 2009SOL     OW 6358   1.593   3.945   0.882
 2009SOL    HW1 6359   1.509   3.944   0.936
 2009SOL    HW2 6360   1.595   4.028   0.826
 2010SOL     OW 6361   0.039   4.801   0.300
 2010SOL    HW1 6362   0.138   4.790   0.291
 2010SOL    HW2 6363  -0.001   4.715   0.332
 2011SOL     OW 6364   0.230   4.352   1.975
 2011SOL    HW1 6365   0.137   4.350   2.012
 2011SOL    HW2 6366   0.231   4.313   1.883
 2012SOL     OW 6367   0.225   3.999   2.858
 2012SOL    HW1 6368   0.260   3.982   2.950
 2012SOL    HW2 6369   0.137   3.954   2.846
 2013SOL     OW 6370   0.019   4.092   2.509
 2013SOL    HW1 6371  -0.063   4.135   2.548
 2013SOL    HW2 6372  -0.009   4.019   2.446
 2014SOL     OW 6373   0.569   4.999   3.027
 2014SOL    HW1 6374   0.476   4.992   2.990
 2014SOL    HW2 6375   0.580   5.088   3.071
 2015SOL     OW 6376   1.555   5.235   2.565
 2015SOL    HW1 6377   1.498   5.219   2.646
 2015SOL    HW2 6378   1.496   5.245   2.485
 2016SOL     OW 6379   1.135   4.427   2.579
 2016SOL    HW1 6380   1.192   4.505   2.554
 2016SOL    HW2 6381   1.075   4.453   2.655
 2017SOL     OW 6382   1.755   4.331   2.093
 2017SOL    HW1 6383   1.743   4.318   1.994
 2017SOL    HW2 6384   1.725   4.250   2.142
 2018SOL     OW 6385   0.768   4.868   2.885
 2018SOL    HW1 6386   0.690   4.885   2.945
 2018SOL    HW2 6387   0.802   4.955   2.849
 2019SOL     OW 6388   0.850   4.522   3.685
 2019SOL    HW1 6389   0.846   4.598   3.750
 2019SOL    HW2 6390   0.872   4.558   3.594
 2020SOL     OW 6391   0.685   4.736   2.527
 2020SOL    HW1 6392   0.754   4.720   2.597
 2020SOL    HW2 6393   0.612   4.793   2.565
 2021SOL     OW 6394   0.686   4.885   3.665
 2021SOL    HW1 6395   0.746   4.964   3.679
 2021SOL    HW2 6396   0.600   4.916   3.624
 2022SOL     OW 6397   0.335   5.159   2.923
 2022SOL    HW1 6398   0.257   5.128   2.870
 2022SOL    HW2 6399   0.393   5.217   2.866
 2023SOL     OW 6400   1.460   5.229   3.201
 2023SOL    HW1 6401   1.484   5.323   3.227
 2023SOL    HW2 6402   1.444   5.175   3.283
 2024SOL     OW 6403   0.438   4.116   3.361
 2024SOL    HW1 6404   0.520   4.060   3.370
 2024SOL    HW2 6405   0.357   4.058   3.365
 2025SOL     OW 6406   1.603   4.171   2.599
 2025SOL    HW1 6407   1.529   4.217   2.549
 2025SOL    HW2 6408   1.654   4.239   2.652
 2026SOL     OW 6409   1.127   5.065   3.552
 2026SOL    HW1 6410   1.174   5.065   3.640
 2026SOL    HW2 6411   1.079   4.978   3.541
 2027SOL     OW 6412   0.230   5.158   2.400
 2027SOL    HW1 6413   0.204   5.254   2.400
 2027SOL    HW2 6414   0.159   5.104   2.445
 2028SOL     OW 6415   0.240   4.815   2.748
 2028SOL    HW1 6416   0.254   4.731   2.800
 2028SOL    HW2 6417   0.185   4.879   2.803
 2029SOL     OW 6418   0.606   4.688   1.985
 2029SOL    HW1 6419   0.613   4.772   1.931
 2029SOL    HW2 6420   0.652   4.701   2.073
 2030SOL     OW 6421   1.594   3.838   3.342
 2030SOL    HW1 6422   1.576   3.905   3.270
 2030SOL    HW2 6423   1.591   3.884   3.431
 2031SOL     OW 6424   0.122   4.367   2.425
 2031SOL    HW1 6425   0.077   4.279   2.442
 2031SOL    HW2 6426   0.121   4.421   2.509
 2032SOL     OW 6427   0.027   5.320   1.979
 2032SOL    HW1 6428   0.008   5.224   2.000
 2032SOL    HW2 6429  -0.006   5.378   2.054
 2033SOL     OW 6430   1.689   4.646   2.474
 2033SOL    HW1 6431   1.784   4.617   2.482
 2033SOL    HW2 6432   1.681   4.711   2.399
 2034SOL     OW 6433   1.641   4.832   2.294
 2034SOL    HW1 6434   1.727   4.834   2.242
 2034SOL    HW2 6435   1.655   4.879   2.382
 2035SOL     OW 6436   0.113   4.461   3.459
 2035SOL    HW1 6437   0.201   4.448   3.504
 2035SOL    HW2 6438   0.100   4.558   3.437
 2036SOL     OW 6439   0.613   5.089   2.588
 2036SOL    HW1 6440   0.564   5.002   2.597
 2036SOL    HW2 6441   0.590   5.132   2.501
 2037SOL     OW 6442   1.293   4.952   3.285
 2037SOL    HW1 6443   1.330   4.879   3.227
 2037SOL    HW2 6444   1.345   4.957   3.370
 2038SOL     OW 6445   0.809   3.728   2.364
 2038SOL    HW1 6446   0.849   3.819   2.355
 2038SOL    HW2 6447   0.709   3.736   2.370
 2039SOL     OW 6448   0.197   4.700   3.126
 2039SOL    HW1 6449   0.286   4.655   3.112
 2039SOL    HW2 6450   0.124   4.635   3.107
 2040SOL     OW 6451   1.525   4.723   2.052
 2040SOL    HW1 6452   1.462   4.647   2.065
 2040SOL    HW2 6453   1.573   4.741   2.138
 2041SOL     OW 6454   0.317   3.975   3.663
 2041SOL    HW1 6455   0.388   4.046   3.669
 2041SOL    HW2 6456   0.229   4.014   3.691
 2042SOL     OW 6457   1.466   5.141   2.815
 2042SOL    HW1 6458   1.407   5.147   2.895
 2042SOL    HW2 6459   1.451   5.053   2.769
 2043SOL     OW 6460   0.598   4.453   2.132
 2043SOL    HW1 6461   0.622   4.522   2.064
 2043SOL    HW2 6462   0.520   4.486   2.186
 2044SOL     OW 6463   1.281   4.069   2.806
 2044SOL    HW1 6464   1.195   4.019   2.793
 2044SOL    HW2 6465   1.343   4.015   2.862
 2045SOL     OW 6466   0.807   4.329   3.327
 2045SOL    HW1 6467   0.760   4.326   3.416
 2045SOL    HW2 6468   0.756   4.274   3.261
 2046SOL     OW 6469   1.394   4.193   3.536
 2046SOL    HW1 6470   1.374   4.236   3.624
 2046SOL    HW2 6471   1.472   4.131   3.545
 2047SOL     OW 6472   0.973   4.614   3.434
 2047SOL    HW1 6473   1.019   4.530   3.405
 2047SOL    HW2 6474   0.917   4.648   3.359
 2048SOL     OW 6475   0.991   4.134   3.104
 2048SOL    HW1 6476   0.914   4.168   3.158
 2048SOL    HW2 6477   0.957   4.083   3.025
 2049SOL     OW 6478   1.041   4.425   2.291
 2049SOL    HW1 6479   1.067   4.421   2.387
 2049SOL    HW2 6480   0.956   4.374   2.277
 2050SOL     OW 6481   0.076   4.535   2.651
 2050SOL    HW1 6482   0.175   4.523   2.660
 2050SOL    HW2 6483   0.052   4.630   2.672
 2051SOL     OW 6484   0.865   4.072   2.057
 2051SOL    HW1 6485   0.924   4.135   2.008
 2051SOL    HW2 6486   0.884   3.978   2.028
 2052SOL     OW 6487   1.719   4.309   3.693
 2052SOL    HW1 6488   1.693   4.398   3.657
 2052SOL    HW2 6489   1.717   4.241   3.620
 2053SOL     OW 6490   1.362   4.868   2.407
 2053SOL    HW1 6491   1.445   4.839   2.359
 2053SOL    HW2 6492   1.313   4.935   2.351
 2054SOL     OW 6493   0.550   3.920   2.747
 2054SOL    HW1 6494   0.545   3.915   2.847
 2054SOL    HW2 6495   0.552   4.016   2.718
 2055SOL     OW 6496   1.008   5.180   2.339
 2055SOL    HW1 6497   0.962   5.252   2.287
 2055SOL    HW2 6498   1.004   5.200   2.437
 2056SOL     OW 6499   1.795   4.790   2.735
 2056SOL    HW1 6500   1.733   4.775   2.659
 2056SOL    HW2 6501   1.743   4.801   2.820
 2057SOL     OW 6502   1.227   5.274   3.368
 2057SOL    HW1 6503   1.233   5.197   3.432
 2057SOL    HW2 6504   1.175   5.248   3.288
 2058SOL     OW 6505   0.321   4.667   2.104
 2058SOL    HW1 6506   0.403   4.706   2.062
 2058SOL    HW2 6507   0.294   4.585   2.055
 2059SOL     OW 6508   1.458   4.459   2.590
 2059SOL    HW1 6509   1.453   4.394   2.665
 2059SOL    HW2 6510   1.538   4.518   2.603
 2060SOL     OW 6511   0.461   4.990   3.589
 2060SOL    HW1 6512   0.411   4.991   3.503
 2060SOL    HW2 6513   0.398   4.972   3.665
 2061SOL     OW 6514   1.111   5.500   2.099
 2061SOL    HW1 6515   1.051   5.438   2.149
 2061SOL    HW2 6516   1.142   5.456   2.014
 2062SOL     OW 6517   0.202   4.009   3.360
 2062SOL    HW1 6518   0.122   4.069   3.347
 2062SOL    HW2 6519   0.192   3.960   3.446
 2063SOL     OW 6520   1.632   5.101   1.943
 2063SOL    HW1 6521   1.600   5.195   1.933
 2063SOL    HW2 6522   1.556   5.038   1.931
 2064SOL     OW 6523   1.400   3.831   2.288
 2064SOL    HW1 6524   1.376   3.794   2.198
 2064SOL    HW2 6525   1.499   3.847   2.292
 2065SOL     OW 6526   0.382   4.424   2.342
 2065SOL    HW1 6527   0.427   4.334   2.339
 2065SOL    HW2 6528   0.288   4.413   2.375
 2066SOL     OW 6529   1.547   3.946   3.591
 2066SOL    HW1 6530   1.542   3.983   3.683
 2066SOL    HW2 6531   1.475   3.877   3.579
 2067SOL     OW 6532   0.614   3.846   1.979
 2067SOL    HW1 6533   0.712   3.824   1.986
 2067SOL    HW2 6534   0.583   3.829   1.886
 2068SOL     OW 6535   0.781   3.988   3.611
 2068SOL    HW1 6536   0.848   3.927   3.654
 2068SOL    HW2 6537   0.708   4.007   3.676
 2069SOL     OW 6538   1.351   4.314   3.295
 2069SOL    HW1 6539   1.379   4.271   3.380
 2069SOL    HW2 6540   1.376   4.410   3.296
 2070SOL     OW 6541   0.803   5.126   2.786
 2070SOL    HW1 6542   0.893   5.140   2.744
 2070SOL    HW2 6543   0.732   5.128   2.715
 2071SOL     OW 6544   0.922   4.227   2.761
 2071SOL    HW1 6545   0.897   4.218   2.665
 2071SOL    HW2 6546   0.970   4.145   2.792
 2072SOL     OW 6547   0.539   3.788   2.374
 2072SOL    HW1 6548   0.458   3.789   2.432
 2072SOL    HW2 6549   0.542   3.871   2.319
 2073SOL     OW 6550   1.434   4.912   1.903
 2073SOL    HW1 6551   1.466   4.836   1.960
 2073SOL    HW2 6552   1.342   4.939   1.933
 2074SOL     OW 6553   0.297   3.759   2.033
 2074SOL    HW1 6554   0.346   3.843   2.012
 2074SOL    HW2 6555   0.359   3.694   2.078
 2075SOL     OW 6556   0.935   3.960   2.342
 2075SOL    HW1 6557   0.887   4.001   2.264
 2075SOL    HW2 6558   1.034   3.958   2.323
 2076SOL     OW 6559   1.076   4.407   3.326
 2076SOL    HW1 6560   0.996   4.346   3.329
 2076SOL    HW2 6561   1.157   4.354   3.302
 2077SOL     OW 6562   1.227   5.294   2.655
 2077SOL    HW1 6563   1.248   5.368   2.590
 2077SOL    HW2 6564   1.295   5.294   2.728
 2078SOL     OW 6565   0.459   4.876   2.603
 2078SOL    HW1 6566   0.388   4.849   2.668
 2078SOL    HW2 6567   0.433   4.848   2.510
 2079SOL     OW 6568   1.032   4.273   1.878
 2079SOL    HW1 6569   0.991   4.355   1.839
 2079SOL    HW2 6570   1.096   4.299   1.951
 2080SOL     OW 6571   0.078   4.280   3.248
 2080SOL    HW1 6572   0.170   4.279   3.207
 2080SOL    HW2 6573   0.072   4.354   3.315
 2081SOL     OW 6574   0.561   3.946   3.009
 2081SOL    HW1 6575   0.599   3.862   3.046
 2081SOL    HW2 6576   0.473   3.965   3.053
 2082SOL     OW 6577   0.866   4.178   2.504
 2082SOL    HW1 6578   0.834   4.250   2.442
 2082SOL    HW2 6579   0.890   4.097   2.451
 2083SOL     OW 6580   1.017   3.763   2.615
 2083SOL    HW1 6581   0.945   3.768   2.546
 2083SOL    HW2 6582   0.993   3.694   2.684
 2084SOL     OW 6583   1.429   4.897   2.729
 2084SOL    HW1 6584   1.374   4.813   2.722
 2084SOL    HW2 6585   1.455   4.926   2.637
 2085SOL     OW 6586   1.466   4.314   2.854
 2085SOL    HW1 6587   1.436   4.219   2.861
 2085SOL    HW2 6588   1.539   4.330   2.920
 2086SOL     OW 6589   1.857   4.557   2.239
 2086SOL    HW1 6590   1.899   4.493   2.303
 2086SOL    HW2 6591   1.819   4.506   2.161
 2087SOL     OW 6592   0.488   5.109   2.036
 2087SOL    HW1 6593   0.401   5.094   2.083
 2087SOL    HW2 6594   0.471   5.135   1.941
 2088SOL     OW 6595   1.664   5.004   2.519
 2088SOL    HW1 6596   1.763   5.012   2.533
 2088SOL    HW2 6597   1.619   5.088   2.550
 2089SOL     OW 6598   1.390   4.299   1.940
 2089SOL    HW1 6599   1.336   4.278   2.021
 2089SOL    HW2 6600   1.481   4.258   1.949
 2090SOL     OW 6601   0.527   3.980   2.190
 2090SOL    HW1 6602   0.554   3.921   2.115
 2090SOL    HW2 6603   0.527   4.075   2.159
 2091SOL     OW 6604   1.754   4.947   3.450
 2091SOL    HW1 6605   1.845   4.908   3.437
 2091SOL    HW2 6606   1.762   5.043   3.474
 2092SOL     OW 6607   1.064   5.071   3.202
 2092SOL    HW1 6608   0.984   5.048   3.257
 2092SOL    HW2 6609   1.147   5.045   3.251
 2093SOL     OW 6610   1.111   4.919   2.962
 2093SOL    HW1 6611   1.071   4.963   3.043
 2093SOL    HW2 6612   1.070   4.956   2.879
 2094SOL     OW 6613   1.638   4.823   2.941
 2094SOL    HW1 6614   1.643   4.904   3.000
 2094SOL    HW2 6615   1.552   4.825   2.890
 2095SOL     OW 6616   0.915   3.813   3.264
 2095SOL    HW1 6617   0.940   3.793   3.169
 2095SOL    HW2 6618   0.987   3.869   3.306
 2096SOL     OW 6619   0.980   4.840   3.581
 2096SOL    HW1 6620   0.881   4.846   3.591
 2096SOL    HW2 6621   1.003   4.760   3.525
 2097SOL     OW 6622   0.705   4.774   2.230
 2097SOL    HW1 6623   0.691   4.781   2.329
 2097SOL    HW2 6624   0.789   4.723   2.212
 2098SOL     OW 6625   0.410   4.537   3.113
 2098SOL    HW1 6626   0.496   4.549   3.163
 2098SOL    HW2 6627   0.368   4.450   3.140
 2099SOL     OW 6628   1.274   4.110   3.124
 2099SOL    HW1 6629   1.295   4.184   3.188
 2099SOL    HW2 6630   1.185   4.127   3.081
 2100SOL     OW 6631   0.064   5.288   3.193
 2100SOL    HW1 6632   0.018   5.370   3.159
 2100SOL    HW2 6633   0.162   5.307   3.202
 2101SOL     OW 6634   0.367   4.824   2.363
 2101SOL    HW1 6635   0.360   4.907   2.307
 2101SOL    HW2 6636   0.371   4.744   2.303
 2102SOL     OW 6637   0.566   4.261   2.727
 2102SOL    HW1 6638   0.578   4.327   2.653
 2102SOL    HW2 6639   0.612   4.295   2.810
 2103SOL     OW 6640   1.252   5.072   2.250
 2103SOL    HW1 6641   1.302   5.149   2.290
 2103SOL    HW2 6642   1.157   5.074   2.282
 2104SOL     OW 6643   1.272   5.169   3.004
 2104SOL    HW1 6644   1.319   5.182   3.091
 2104SOL    HW2 6645   1.206   5.095   3.013
 2105SOL     OW 6646   1.582   4.363   2.334
 2105SOL    HW1 6647   1.551   4.424   2.407
 2105SOL    HW2 6648   1.632   4.415   2.265
 2106SOL     OW 6649   0.354   5.234   3.191
 2106SOL    HW1 6650   0.333   5.190   3.104
 2106SOL    HW2 6651   0.451   5.260   3.194
 2107SOL     OW 6652   0.402   4.475   3.460
 2107SOL    HW1 6653   0.470   4.530   3.413
 2107SOL    HW2 6654   0.442   4.387   3.487
 2108SOL     OW 6655   1.587   4.503   3.532
 2108SOL    HW1 6656   1.495   4.541   3.527
 2108SOL    HW2 6657   1.647   4.550   3.467
 2109SOL     OW 6658   1.013   3.829   3.632
 2109SOL    HW1 6659   1.019   3.914   3.580
 2109SOL    HW2 6660   1.045   3.753   3.575
 2110SOL     OW 6661   0.504   3.774   3.602
 2110SOL    HW1 6662   0.462   3.717   3.532
 2110SOL    HW2 6663   0.438   3.843   3.634
 2111SOL     OW 6664   0.573   4.594   2.891
 2111SOL    HW1 6665   0.617   4.683   2.882
 2111SOL    HW2 6666   0.510   4.594   2.968
 2112SOL     OW 6667   1.360   4.586   2.907
 2112SOL    HW1 6668   1.285   4.586   2.841
 2112SOL    HW2 6669   1.397   4.494   2.916
 2113SOL     OW 6670   1.209   4.249   2.137
 2113SOL    HW1 6671   1.222   4.165   2.191
 2113SOL    HW2 6672   1.180   4.323   2.197
 2114SOL     OW 6673   0.307   3.937   3.093
 2114SOL    HW1 6674   0.284   3.974   3.183
 2114SOL    HW2 6675   0.277   3.842   3.087
 2115SOL     OW 6676   0.037   5.034   3.144
 2115SOL    HW1 6677   0.090   4.985   3.212
 2115SOL    HW2 6678   0.059   5.132   3.149
 2116SOL     OW 6679   0.732   4.358   2.926
 2116SOL    HW1 6680   0.791   4.332   2.850
 2116SOL    HW2 6681   0.704   4.454   2.915
 2117SOL     OW 6682   1.728   4.659   3.716
 2117SOL    HW1 6683   1.682   4.652   3.627
 2117SOL    HW2 6684   1.666   4.703   3.782
 2118SOL     OW 6685   0.307   3.787   2.480
 2118SOL    HW1 6686   0.296   3.881   2.513
 2118SOL    HW2 6687   0.302   3.724   2.557
 2119SOL     OW 6688   1.622   4.091   2.236
 2119SOL    HW1 6689   1.624   4.015   2.300
 2119SOL    HW2 6690   1.574   4.168   2.276
 2120SOL     OW 6691   1.023   4.490   2.828
 2120SOL    HW1 6692   1.038   4.511   2.924
 2120SOL    HW2 6693   0.993   4.395   2.819
 2121SOL     OW 6694   1.859   5.242   3.467
 2121SOL    HW1 6695   1.873   5.269   3.372
 2121SOL    HW2 6696   1.942   5.264   3.520
 2122SOL     OW 6697   0.350   4.622   3.666
 2122SOL    HW1 6698   0.426   4.666   3.714
 2122SOL    HW2 6699   0.385   4.575   3.584
 2123SOL     OW 6700   1.540   3.998   1.987
 2123SOL    HW1 6701   1.479   3.923   2.010
 2123SOL    HW2 6702   1.562   4.050   2.070
 2124SOL     OW 6703   1.303   4.562   1.904
 2124SOL    HW1 6704   1.337   4.469   1.919
 2124SOL    HW2 6705   1.321   4.589   1.809
 2125SOL     OW 6706   1.068   5.057   2.711
 2125SOL    HW1 6707   1.075   4.973   2.656
 2125SOL    HW2 6708   1.130   5.126   2.675
 2126SOL     OW 6709   0.319   4.534   2.811
 2126SOL    HW1 6710   0.412   4.570   2.816
 2126SOL    HW2 6711   0.313   4.449   2.863
 2127SOL     OW 6712   0.339   4.233   2.868
 2127SOL    HW1 6713   0.287   4.150   2.851
 2127SOL    HW2 6714   0.416   4.238   2.804
 2128SOL     OW 6715   1.138   4.104   3.540
 2128SOL    HW1 6716   1.093   4.167   3.604
 2128SOL    HW2 6717   1.231   4.135   3.523
 2129SOL     OW 6718   1.160   3.931   3.339
 2129SOL    HW1 6719   1.160   3.995   3.416
 2129SOL    HW2 6720   1.188   3.979   3.256
 2130SOL     OW 6721   0.008   5.050   2.062
 2130SOL    HW1 6722  -0.085   5.071   2.031
 2130SOL    HW2 6723   0.018   4.951   2.075
 2131SOL     OW 6724   1.002   4.520   3.100
 2131SOL    HW1 6725   1.043   4.488   3.186
 2131SOL    HW2 6726   0.906   4.493   3.097
 2132SOL     OW 6727   0.040   4.268   2.976
 2132SOL    HW1 6728   0.125   4.235   2.935
 2132SOL    HW2 6729   0.053   4.283   3.074
 2133SOL     OW 6730   0.189   4.244   3.584
 2133SOL    HW1 6731   0.248   4.204   3.514
 2133SOL    HW2 6732   0.131   4.315   3.543
 2134SOL     OW 6733   1.369   4.674   3.522
 2134SOL    HW1 6734   1.408   4.763   3.542
 2134SOL    HW2 6735   1.379   4.654   3.425
 2135SOL     OW 6736   0.815   4.296   2.187
 2135SOL    HW1 6737   0.822   4.207   2.141
 2135SOL    HW2 6738   0.721   4.330   2.179
 2136SOL     OW 6739   1.657   4.328   3.068
 2136SOL    HW1 6740   1.619   4.259   3.130
 2136SOL    HW2 6741   1.739   4.292   3.024
 2137SOL     OW 6742   0.252   5.288   3.606
 2137SOL    HW1 6743   0.222   5.345   3.682
 2137SOL    HW2 6744   0.245   5.191   3.632
 2138SOL     OW 6745   0.671   4.188   3.131
 2138SOL    HW1 6746   0.637   4.099   3.101
 2138SOL    HW2 6747   0.697   4.242   3.051
 2139SOL     OW 6748   0.473   4.224   2.053
 2139SOL    HW1 6749   0.534   4.304   2.057
 2139SOL    HW2 6750   0.378   4.255   2.060
 2140SOL     OW 6751   0.159   4.861   3.328
 2140SOL    HW1 6752   0.181   4.800   3.404
 2140SOL    HW2 6753   0.169   4.812   3.242
 2141SOL     OW 6754   1.347   4.783   3.096
 2141SOL    HW1 6755   1.371   4.720   3.022
 2141SOL    HW2 6756   1.257   4.823   3.078
 2142SOL     OW 6757   1.302   4.579   2.171
 2142SOL    HW1 6758   1.216   4.548   2.213
 2142SOL    HW2 6759   1.298   4.565   2.072
 2143SOL     OW 6760   0.083   4.982   2.884
 2143SOL    HW1 6761   0.078   4.981   2.984
 2143SOL    HW2 6762   0.000   4.941   2.846
 2144SOL     OW 6763   0.688   5.386   3.578
 2144SOL    HW1 6764   0.632   5.467   3.587
 2144SOL    HW2 6765   0.740   5.390   3.492
 2145SOL     OW 6766   1.726   3.859   2.385
 2145SOL    HW1 6767   1.799   3.842   2.318
 2145SOL    HW2 6768   1.695   3.772   2.423
 2146SOL     OW 6769   1.280   4.651   2.534
 2146SOL    HW1 6770   1.340   4.570   2.536
 2146SOL    HW2 6771   1.320   4.720   2.474
 2147SOL     OW 6772   0.830   4.997   3.284
 2147SOL    HW1 6773   0.825   5.030   3.379
 2147SOL    HW2 6774   0.744   5.016   3.238
 2148SOL     OW 6775   1.841   3.899   2.825
 2148SOL    HW1 6776   1.880   3.814   2.789
 2148SOL    HW2 6777   1.743   3.901   2.806
 2149SOL     OW 6778   0.263   4.050   2.582
 2149SOL    HW1 6779   0.184   4.101   2.548
 2149SOL    HW2 6780   0.254   4.035   2.680
 2150SOL     OW 6781   0.822   4.726   3.234
 2150SOL    HW1 6782   0.862   4.725   3.142
 2150SOL    HW2 6783   0.832   4.818   3.274
 2151SOL     OW 6784   0.916   4.634   2.153
 2151SOL    HW1 6785   0.979   4.672   2.085
 2151SOL    HW2 6786   0.956   4.551   2.192
 2152SOL     OW 6787   0.372   5.012   3.352
 2152SOL    HW1 6788   0.359   5.105   3.318
 2152SOL    HW2 6789   0.288   4.960   3.339
 2153SOL     OW 6790   1.614   5.016   3.151
 2153SOL    HW1 6791   1.674   5.019   3.231
 2153SOL    HW2 6792   1.539   5.080   3.164
 2154SOL     OW 6793   1.039   4.822   2.558
 2154SOL    HW1 6794   0.969   4.775   2.612
 2154SOL    HW2 6795   1.098   4.754   2.515
 2155SOL     OW 6796   1.014   3.960   2.833
 2155SOL    HW1 6797   1.006   3.924   2.740
 2155SOL    HW2 6798   1.012   3.884   2.898
 2156SOL     OW 6799   1.709   4.109   3.243
 2156SOL    HW1 6800   1.782   4.178   3.247
 2156SOL    HW2 6801   1.737   4.034   3.184
 2157SOL     OW 6802   0.255   5.072   2.152
 2157SOL    HW1 6803   0.159   5.073   2.125
 2157SOL    HW2 6804   0.267   5.125   2.236
 2158SOL     OW 6805   0.105   4.737   3.588
 2158SOL    HW1 6806   0.028   4.704   3.642
 2158SOL    HW2 6807   0.190   4.707   3.630
 2159SOL     OW 6808   0.672   3.927   3.351
 2159SOL    HW1 6809   0.762   3.911   3.311
 2159SOL    HW2 6810   0.680   3.932   3.450
 2160SOL     OW 6811   0.075   4.069   1.895
 2160SOL    HW1 6812  -0.017   4.041   1.866
 2160SOL    HW2 6813   0.106   4.146   1.839
 2161SOL     OW 6814   1.440   4.580   3.260
 2161SOL    HW1 6815   1.383   4.632   3.197
 2161SOL    HW2 6816   1.536   4.592   3.236
 2162SOL     OW 6817   0.072   3.890   2.180
 2162SOL    HW1 6818   0.055   3.973   2.126
 2162SOL    HW2 6819   0.162   3.853   2.158
 2163SOL     OW 6820   1.183   5.059   1.981
 2163SOL    HW1 6821   1.084   5.048   1.983
 2163SOL    HW2 6822   1.217   5.074   2.074
 2164SOL     OW 6823   0.613   4.566   3.293
 2164SOL    HW1 6824   0.669   4.647   3.276
 2164SOL    HW2 6825   0.672   4.486   3.296
 2165SOL     OW 6826   0.716   4.289   3.570
 2165SOL    HW1 6827   0.735   4.354   3.644
 2165SOL    HW2 6828   0.776   4.209   3.579
 2166SOL     OW 6829   1.450   4.944   3.495
 2166SOL    HW1 6830   1.441   4.934   3.594
 2166SOL    HW2 6831   1.546   4.937   3.469
 2167SOL     OW 6832   1.674   4.607   3.116
 2167SOL    HW1 6833   1.647   4.518   3.079
 2167SOL    HW2 6834   1.675   4.675   3.043
 2168SOL     OW 6835   1.225   4.049   2.311
 2168SOL    HW1 6836   1.290   3.975   2.300
 2168SOL    HW2 6837   1.245   4.099   2.395
 2169SOL     OW 6838   0.594   4.469   2.514
 2169SOL    HW1 6839   0.644   4.554   2.495
 2169SOL    HW2 6840   0.506   4.471   2.466
 2170SOL     OW 6841   1.777   4.066   3.504
 2170SOL    HW1 6842   1.760   4.097   3.410
 2170SOL    HW2 6843   1.693   4.029   3.542
 2171SOL     OW 6844   1.730   4.658   3.379
 2171SOL    HW1 6845   1.768   4.749   3.394
 2171SOL    HW2 6846   1.722   4.641   3.280
 2172SOL     OW 6847   0.859   5.098   1.878
 2172SOL    HW1 6848   0.813   5.113   1.966
 2172SOL    HW2 6849   0.903   5.183   1.848
 2173SOL     OW 6850   0.859   4.680   2.723
 2173SOL    HW1 6851   0.913   4.611   2.771
 2173SOL    HW2 6852   0.827   4.749   2.789
 2174SOL     OW 6853   1.083   4.708   1.949
 2174SOL    HW1 6854   1.060   4.761   1.867
 2174SOL    HW2 6855   1.164   4.652   1.930
 2175SOL     OW 6856   0.221   5.038   3.706
 2175SOL    HW1 6857   0.156   4.965   3.685
 2175SOL    HW2 6858   0.225   5.052   3.804
 2176SOL     OW 6859   0.079   4.964   2.515
 2176SOL    HW1 6860   0.078   4.917   2.603
 2176SOL    HW2 6861   0.161   4.936   2.464
 2177SOL     OW 6862   0.672   5.115   3.486
 2177SOL    HW1 6863   0.594   5.065   3.524
 2177SOL    HW2 6864   0.669   5.210   3.517
 2178SOL     OW 6865   1.824   3.916   3.089
 2178SOL    HW1 6866   1.820   3.826   3.133
 2178SOL    HW2 6867   1.827   3.905   2.990
 2179SOL     OW 6868   0.428   4.148   2.382
 2179SOL    HW1 6869   0.458   4.076   2.320
 2179SOL    HW2 6870   0.389   4.108   2.465
 2180SOL     OW 6871   1.705   5.211   2.966
 2180SOL    HW1 6872   1.612   5.186   2.939
 2180SOL    HW2 6873   1.731   5.161   3.048
 2181SOL     OW 6874   0.317   4.271   3.142
 2181SOL    HW1 6875   0.355   4.212   3.214
 2181SOL    HW2 6876   0.357   4.245   3.054
 2182SOL     OW 6877   1.424   3.938   2.974
 2182SOL    HW1 6878   1.476   3.873   3.029
 2182SOL    HW2 6879   1.375   4.001   3.035
 2183SOL     OW 6880   1.001   3.758   3.016
 2183SOL    HW1 6881   0.938   3.686   2.985
 2183SOL    HW2 6882   1.094   3.722   3.016
 2184SOL     OW 6883   0.770   5.054   2.163
 2184SOL    HW1 6884   0.724   4.967   2.180
 2184SOL    HW2 6885   0.861   5.051   2.204
 2185SOL     OW 6886   0.618   5.291   3.146
 2185SOL    HW1 6887   0.613   5.373   3.203
 2185SOL    HW2 6888   0.707   5.288   3.101
 2186SOL     OW 6889   1.352   3.776   2.030
 2186SOL    HW1 6890   1.387   3.735   1.946
 2186SOL    HW2 6891   1.262   3.738   2.050
 2187SOL     OW 6892   1.300   4.177   2.553
 2187SOL    HW1 6893   1.241   4.257   2.557
 2187SOL    HW2 6894   1.315   4.142   2.646
 2188SOL     OW 6895   1.593   3.945   2.744
 2188SOL    HW1 6896   1.509   3.944   2.798
 2188SOL    HW2 6897   1.595   4.028   2.688
 2189SOL     OW 6898   0.039   4.801   2.162
 2189SOL    HW1 6899   0.138   4.790   2.153
 2189SOL    HW2 6900  -0.001   4.715   2.194
 2190SOL     OW 6901   0.230   4.352   3.837
 2190SOL    HW1 6902   0.137   4.350   3.874
 2190SOL    HW2 6903   0.231   4.313   3.745
 2191SOL     OW 6904   0.225   3.999   4.720
 2191SOL    HW1 6905   0.260   3.982   4.812
 2191SOL    HW2 6906   0.137   3.954   4.708
 2192SOL     OW 6907   0.019   4.092   4.371
 2192SOL    HW1 6908  -0.063   4.135   4.410
 2192SOL    HW2 6909  -0.009   4.019   4.308
 2193SOL     OW 6910   0.569   4.999   4.889
 2193SOL    HW1 6911   0.476   4.992   4.852
 2193SOL    HW2 6912   0.580   5.088   4.933
 2194SOL     OW 6913   1.555   5.235   4.427
 2194SOL    HW1 6914   1.498   5.219   4.508
 2194SOL    HW2 6915   1.496   5.245   4.347
 2195SOL     OW 6916   1.135   4.427   4.441
 2195SOL    HW1 6917   1.192   4.505   4.416
 2195SOL    HW2 6918   1.075   4.453   4.517
 2196SOL     OW 6919   1.755   4.331   3.955
 2196SOL    HW1 6920   1.743   4.318   3.856
 2196SOL    HW2 6921   1.725   4.250   4.004
 2197SOL     OW 6922   0.768   4.868   4.747
 2197SOL    HW1 6923   0.690   4.885   4.807
 2197SOL    HW2 6924   0.802   4.955   4.711
 2198SOL     OW 6925   0.850   4.522   5.547
 2198SOL    HW1 6926   0.846   4.598   5.612
 2198SOL    HW2 6927   0.872   4.558   5.456
 2199SOL     OW 6928   0.685   4.736   4.389
 2199SOL    HW1 6929   0.754   4.720   4.459
 2199SOL    HW2 6930   0.612   4.793   4.427
 2200SOL     OW 6931   0.686   4.885   5.527
 2200SOL    HW1 6932   0.746   4.964   5.541
 2200SOL    HW2 6933   0.600   4.916   5.486
 2201SOL     OW 6934   0.335   5.159   4.785
 2201SOL    HW1 6935   0.257   5.128   4.732
 2201SOL    HW2 6936   0.393   5.217   4.728
 2202SOL     OW 6937   1.460   5.229   5.063
 2202SOL    HW1 6938   1.484   5.323   5.089
 2202SOL    HW2 6939   1.444   5.175   5.145
 2203SOL     OW 6940   0.438   4.116   5.223
 2203SOL    HW1 6941   0.520   4.060   5.232
 2203SOL    HW2 6942   0.357   4.058   5.227
 2204SOL     OW 6943   1.603   4.171   4.461
 2204SOL    HW1 6944   1.529   4.217   4.411
 2204SOL    HW2 6945   1.654   4.239   4.514
 2205SOL     OW 6946   1.127   5.065   5.414
 2205SOL    HW1 6947   1.174   5.065   5.502
 2205SOL    HW2 6948   1.079   4.978   5.403
 2206SOL     OW 6949   0.230   5.158   4.262
 2206SOL    HW1 6950   0.204   5.254   4.262
 2206SOL    HW2 6951   0.159   5.104   4.307
 2207SOL     OW 6952   0.240   4.815   4.610
 2207SOL    HW1 6953   0.254   4.731   4.662
 2207SOL    HW2 6954   0.185   4.879   4.665
 2208SOL     OW 6955   0.606   4.688   3.847
 2208SOL    HW1 6956   0.613   4.772   3.793
 2208SOL    HW2 6957   0.652   4.701   3.935
 2209SOL     OW 6958   1.594   3.838   5.204
 2209SOL    HW1 6959   1.576   3.905   5.132
 2209SOL    HW2 6960   1.591   3.884   5.293
 2210SOL     OW 6961   0.122   4.367   4.287
 2210SOL    HW1 6962   0.077   4.279   4.304
 2210SOL    HW2 6963   0.121   4.421   4.371
 2211SOL     OW 6964   0.027   5.320   3.841
 2211SOL    HW1 6965   0.008   5.224   3.862
 2211SOL    HW2 6966  -0.006   5.378   3.916
 2212SOL     OW 6967   1.689   4.646   4.336
 2212SOL    HW1 6968   1.784   4.617   4.344
 2212SOL    HW2 6969   1.681   4.711   4.261
 2213SOL     OW 6970   1.641   4.832   4.156
 2213SOL    HW1 6971   1.727   4.834   4.104
 2213SOL    HW2 6972   1.655   4.879   4.244
 2214SOL     OW 6973   0.113   4.461   5.321
 2214SOL    HW1 6974   0.201   4.448   5.366
 2214SOL    HW2 6975   0.100   4.558   5.299
 2215SOL     OW 6976   0.613   5.089   4.450
 2215SOL    HW1 6977   0.564   5.002   4.459
 2215SOL    HW2 6978   0.590   5.132   4.363
 2216SOL     OW 6979   1.293   4.952   5.147
 2216SOL    HW1 6980   1.330   4.879   5.089
 2216SOL    HW2 6981   1.345   4.957   5.232
 2217SOL     OW 6982   0.809   3.728   4.226
 2217SOL    HW1 6983   0.849   3.819   4.217
 2217SOL    HW2 6984   0.709   3.736   4.232
 2218SOL     OW 6985   0.197   4.700   4.988
 2218SOL    HW1 6986   0.286   4.655   4.974
 2218SOL    HW2 6987   0.124   4.635   4.969
 2219SOL     OW 6988   1.525   4.723   3.914
 2219SOL    HW1 6989   1.462   4.647   3.927
 2219SOL    HW2 6990   1.573   4.741   4.000
 2220SOL     OW 6991   0.317   3.975   5.525
 2220SOL    HW1 6992   0.388   4.046   5.531
 2220SOL    HW2 6993   0.229   4.014   5.553
 2221SOL     OW 6994   1.466   5.141   4.677
 2221SOL    HW1 6995   1.407   5.147   4.757
 2221SOL    HW2 6996   1.451   5.053   4.631
 2222SOL     OW 6997   0.598   4.453   3.994
 2222SOL    HW1 6998   0.622   4.522   3.926
 2222SOL    HW2 6999   0.520   4.486   4.048
 2223SOL     OW 7000   1.281   4.069   4.668
 2223SOL    HW1 7001   1.195   4.019   4.655
 2223SOL    HW2 7002   1.343   4.015   4.724
 2224SOL     OW 7003   0.807   4.329   5.189
 2224SOL    HW1 7004   0.760   4.326   5.278
 2224SOL    HW2 7005   0.756   4.274   5.123
 2225SOL     OW 7006   1.394   4.193   5.398
 2225SOL    HW1 7007   1.374   4.236   5.486
 2225SOL    HW2 7008   1.472   4.131   5.407
 2226SOL     OW 7009   0.973   4.614   5.296
 2226SOL    HW1 7010   1.019   4.530   5.267
 2226SOL    HW2 7011   0.917   4.648   5.221
 2227SOL     OW 7012   0.991   4.134   4.966
 2227SOL    HW1 7013   0.914   4.168   5.020
 2227SOL    HW2 7014   0.957   4.083   4.887
 2228SOL     OW 7015   1.041   4.425   4.153
 2228SOL    HW1 7016   1.067   4.421   4.249
 2228SOL    HW2 7017   0.956   4.374   4.139
 2229SOL     OW 7018   0.076   4.535   4.513
 2229SOL    HW1 7019   0.175   4.523   4.522
 2229SOL    HW2 7020   0.052   4.630   4.534
 2230SOL     OW 7021   0.865   4.072   3.919
 2230SOL    HW1 7022   0.924   4.135   3.870
 2230SOL    HW2 7023   0.884   3.978   3.890
 2231SOL     OW 7024   1.719   4.309   5.555
 2231SOL    HW1 7025   1.693   4.398   5.519
 2231SOL    HW2 7026   1.717   4.241   5.482
 2232SOL     OW 7027   1.362   4.868   4.269
 2232SOL    HW1 7028   1.445   4.839   4.221
 2232SOL    HW2 7029   1.313   4.935   4.213
 2233SOL     OW 7030   0.550   3.920   4.609
 2233SOL    HW1 7031   0.545   3.915   4.709
 2233SOL    HW2 7032   0.552   4.016   4.580
 2234SOL     OW 7033   1.008   5.180   4.201
 2234SOL    HW1 7034   0.962   5.252   4.149
 2234SOL    HW2 7035   1.004   5.200   4.299
 2235SOL     OW 7036   1.795   4.790   4.597
 2235SOL    HW1 7037   1.733   4.775   4.521
 2235SOL    HW2 7038   1.743   4.801   4.682
 2236SOL     OW 7039   1.227   5.274   5.230
 2236SOL    HW1 7040   1.233   5.197   5.294
 2236SOL    HW2 7041   1.175   5.248   5.150
 2237SOL     OW 7042   0.321   4.667   3.966
 2237SOL    HW1 7043   0.403   4.706   3.924
 2237SOL    HW2 7044   0.294   4.585   3.917
 2238SOL     OW 7045   1.458   4.459   4.452
 2238SOL    HW1 7046   1.453   4.394   4.527
 2238SOL    HW2 7047   1.538   4.518   4.465
 2239SOL     OW 7048   0.461   4.990   5.451
 2239SOL    HW1 7049   0.411   4.991   5.365
 2239SOL    HW2 7050   0.398   4.972   5.527
 2240SOL     OW 7051   1.111   5.500   3.961
 2240SOL    HW1 7052   1.051   5.438   4.011
 2240SOL    HW2 7053   1.142   5.456   3.876
 2241SOL     OW 7054   0.202   4.009   5.222
 2241SOL    HW1 7055   0.122   4.069   5.209
 2241SOL    HW2 7056   0.192   3.960   5.308
 2242SOL     OW 7057   1.632   5.101   3.805
 2242SOL    HW1 7058   1.600   5.195   3.795
 2242SOL    HW2 7059   1.556   5.038   3.793
 2243SOL     OW 7060   1.400   3.831   4.150
 2243SOL    HW1 7061   1.376   3.794   4.060
 2243SOL    HW2 7062   1.499   3.847   4.154
 2244SOL     OW 7063   0.382   4.424   4.204
 2244SOL    HW1 7064   0.427   4.334   4.201
 2244SOL    HW2 7065   0.288   4.413   4.237
 2245SOL     OW 7066   1.547   3.946   5.453
 2245SOL    HW1 7067   1.542   3.983   5.545
 2245SOL    HW2 7068   1.475   3.877   5.441
 2246SOL     OW 7069   0.614   3.846   3.841
 2246SOL    HW1 7070   0.712   3.824   3.848
 2246SOL    HW2 7071   0.583   3.829   3.748
 2247SOL     OW 7072   0.781   3.988   5.473
 2247SOL    HW1 7073   0.848   3.927   5.516
 2247SOL    HW2 7074   0.708   4.007   5.538
 2248SOL     OW 7075   1.351   4.314   5.157
 2248SOL    HW1 7076   1.379   4.271   5.242
 2248SOL    HW2 7077   1.376   4.410   5.158
 2249SOL     OW 7078   0.803   5.126   4.648
 2249SOL    HW1 7079   0.893   5.140   4.606
 2249SOL    HW2 7080   0.732   5.128   4.577
 2250SOL     OW 7081   0.922   4.227   4.623
 2250SOL    HW1 7082   0.897   4.218   4.527
 2250SOL    HW2 7083   0.970   4.145   4.654
 2251SOL     OW 7084   0.539   3.788   4.236
 2251SOL    HW1 7085   0.458   3.789   4.294
 2251SOL    HW2 7086   0.542   3.871   4.181
 2252SOL     OW 7087   1.434   4.912   3.765
 2252SOL    HW1 7088   1.466   4.836   3.822
 2252SOL    HW2 7089   1.342   4.939   3.795
 2253SOL     OW 7090   0.297   3.759   3.895
 2253SOL    HW1 7091   0.346   3.843   3.874
 2253SOL    HW2 7092   0.359   3.694   3.940
 2254SOL     OW 7093   0.935   3.960   4.204
 2254SOL    HW1 7094   0.887   4.001   4.126
 2254SOL    HW2 7095   1.034   3.958   4.185
 2255SOL     OW 7096   1.076   4.407   5.188
 2255SOL    HW1 7097   0.996   4.346   5.191
 2255SOL    HW2 7098   1.157   4.354   5.164
 2256SOL     OW 7099   1.227   5.294   4.517
 2256SOL    HW1 7100   1.248   5.368   4.452
 2256SOL    HW2 7101   1.295   5.294   4.590
 2257SOL     OW 7102   0.459   4.876   4.465
 2257SOL    HW1 7103   0.388   4.849   4.530
 2257SOL    HW2 7104   0.433   4.848   4.372
 2258SOL     OW 7105   1.032   4.273   3.740
 2258SOL    HW1 7106   0.991   4.355   3.701
 2258SOL    HW2 7107   1.096   4.299   3.813
 2259SOL     OW 7108   0.078   4.280   5.110
 2259SOL    HW1 7109   0.170   4.279   5.069
 2259SOL    HW2 7110   0.072   4.354   5.177
 2260SOL     OW 7111   0.561   3.946   4.871
 2260SOL    HW1 7112   0.599   3.862   4.908
 2260SOL    HW2 7113   0.473   3.965   4.915
 2261SOL     OW 7114   0.866   4.178   4.366
 2261SOL    HW1 7115   0.834   4.250   4.304
 2261SOL    HW2 7116   0.890   4.097   4.313
 2262SOL     OW 7117   1.017   3.763   4.477
 2262SOL    HW1 7118   0.945   3.768   4.408
 2262SOL    HW2 7119   0.993   3.694   4.546
 2263SOL     OW 7120   1.429   4.897   4.591
 2263SOL    HW1 7121   1.374   4.813   4.584
 2263SOL    HW2 7122   1.455   4.926   4.499
 2264SOL     OW 7123   1.466   4.314   4.716
 2264SOL    HW1 7124   1.436   4.219   4.723
 2264SOL    HW2 7125   1.539   4.330   4.782
 2265SOL     OW 7126   1.857   4.557   4.101
 2265SOL    HW1 7127   1.899   4.493   4.165
 2265SOL    HW2 7128   1.819   4.506   4.023
 2266SOL     OW 7129   0.488   5.109   3.898
 2266SOL    HW1 7130   0.401   5.094   3.945
 2266SOL    HW2 7131   0.471   5.135   3.803
 2267SOL     OW 7132   1.664   5.004   4.381
 2267SOL    HW1 7133   1.763   5.012   4.395
 2267SOL    HW2 7134   1.619   5.088   4.412
 2268SOL     OW 7135   1.390   4.299   3.802
 2268SOL    HW1 7136   1.336   4.278   3.883
 2268SOL    HW2 7137   1.481   4.258   3.811
 2269SOL     OW 7138   0.527   3.980   4.052
 2269SOL    HW1 7139   0.554   3.921   3.977
 2269SOL    HW2 7140   0.527   4.075   4.021
 2270SOL     OW 7141   1.754   4.947   5.312
 2270SOL    HW1 7142   1.845   4.908   5.299
 2270SOL    HW2 7143   1.762   5.043   5.336
 2271SOL     OW 7144   1.064   5.071   5.064
 2271SOL    HW1 7145   0.984   5.048   5.119
 2271SOL    HW2 7146   1.147   5.045   5.113
 2272SOL     OW 7147   1.111   4.919   4.824
 2272SOL    HW1 7148   1.071   4.963   4.905
 2272SOL    HW2 7149   1.070   4.956   4.741
 2273SOL     OW 7150   1.638   4.823   4.803
 2273SOL    HW1 7151   1.643   4.904   4.862
 2273SOL    HW2 7152   1.552   4.825   4.752
 2274SOL     OW 7153   0.915   3.813   5.126
 2274SOL    HW1 7154   0.940   3.793   5.031
 2274SOL    HW2 7155   0.987   3.869   5.168
 2275SOL     OW 7156   0.980   4.840   5.443
 2275SOL    HW1 7157   0.881   4.846   5.453
 2275SOL    HW2 7158   1.003   4.760   5.387
 2276SOL     OW 7159   0.705   4.774   4.092
 2276SOL    HW1 7160   0.691   4.781   4.191
 2276SOL    HW2 7161   0.789   4.723   4.074
 2277SOL     OW 7162   0.410   4.537   4.975
 2277SOL    HW1 7163   0.496   4.549   5.025
 2277SOL    HW2 7164   0.368   4.450   5.002
 2278SOL     OW 7165   1.274   4.110   4.986
 2278SOL    HW1 7166   1.295   4.184   5.050
 2278SOL    HW2 7167   1.185   4.127   4.943
 2279SOL     OW 7168   0.064   5.288   5.055
 2279SOL    HW1 7169   0.018   5.370   5.021
 2279SOL    HW2 7170   0.162   5.307   5.064
 2280SOL     OW 7171   0.367   4.824   4.225
 2280SOL    HW1 7172   0.360   4.907   4.169
 2280SOL    HW2 7173   0.371   4.744   4.165
 2281SOL     OW 7174   0.566   4.261   4.589
 2281SOL    HW1 7175   0.578   4.327   4.515
 2281SOL    HW2 7176   0.612   4.295   4.672
 2282SOL     OW 7177   1.252   5.072   4.112
 2282SOL    HW1 7178   1.302   5.149   4.152
 2282SOL    HW2 7179   1.157   5.074   4.144
 2283SOL     OW 7180   1.272   5.169   4.866
 2283SOL    HW1 7181   1.319   5.182   4.953
 2283SOL    HW2 7182   1.206   5.095   4.875
 2284SOL     OW 7183   1.582   4.363   4.196
 2284SOL    HW1 7184   1.551   4.424   4.269
 2284SOL    HW2 7185   1.632   4.415   4.127
 2285SOL     OW 7186   0.354   5.234   5.053
 2285SOL    HW1 7187   0.333   5.190   4.966
 2285SOL    HW2 7188   0.451   5.260   5.056
 2286SOL     OW 7189   0.402   4.475   5.322
 2286SOL    HW1 7190   0.470   4.530   5.275
 2286SOL    HW2 7191   0.442   4.387   5.349
 2287SOL     OW 7192   1.587   4.503   5.394
 2287SOL    HW1 7193   1.495   4.541   5.389
 2287SOL    HW2 7194   1.647   4.550   5.329
 2288SOL     OW 7195   1.013   3.829   5.494
 2288SOL    HW1 7196   1.019   3.914   5.442
 2288SOL    HW2 7197   1.045   3.753   5.437
 2289SOL     OW 7198   0.504   3.774   5.464
 2289SOL    HW1 7199   0.462   3.717   5.394
 2289SOL    HW2 7200   0.438   3.843   5.496
 2290SOL     OW 7201   0.573   4.594   4.753
 2290SOL    HW1 7202   0.617   4.683   4.744
 2290SOL    HW2 7203   0.510   4.594   4.830
 2291SOL     OW 7204   1.360   4.586   4.769
 2291SOL    HW1 7205   1.285   4.586   4.703
 2291SOL    HW2 7206   1.397   4.494   4.778
 2292SOL     OW 7207   1.209   4.249   3.999
 2292SOL    HW1 7208   1.222   4.165   4.053
 2292SOL    HW2 7209   1.180   4.323   4.059
 2293SOL     OW 7210   0.307   3.937   4.955
 2293SOL    HW1 7211   0.284   3.974   5.045
 2293SOL    HW2 7212   0.277   3.842   4.949
 2294SOL     OW 7213   0.037   5.034   5.006
 2294SOL    HW1 7214   0.090   4.985   5.074
 2294SOL    HW2 7215   0.059   5.132   5.011
 2295SOL     OW 7216   0.732   4.358   4.788
 2295SOL    HW1 7217   0.791   4.332   4.712
 2295SOL    HW2 7218   0.704   4.454   4.777
 2296SOL     OW 7219   1.728   4.659   5.578
 2296SOL    HW1 7220   1.682   4.652   5.489
 2296SOL    HW2 7221   1.666   4.703   5.644
 2297SOL     OW 7222   0.307   3.787   4.342
 2297SOL    HW1 7223   0.296   3.881   4.375
 2297SOL    HW2 7224   0.302   3.724   4.419
 2298SOL     OW 7225   1.622   4.091   4.098
 2298SOL    HW1 7226   1.624   4.015   4.162
 2298SOL    HW2 7227   1.574   4.168   4.138
 2299SOL     OW 7228   1.023   4.490   4.690
 2299SOL    HW1 7229   1.038   4.511   4.786
 2299SOL    HW2 7230   0.993   4.395   4.681
 2300SOL     OW 7231   1.859   5.242   5.329
 2300SOL    HW1 7232   1.873   5.269   5.234
 2300SOL    HW2 7233   1.942   5.264   5.382
 2301SOL     OW 7234   0.350   4.622   5.528
 2301SOL    HW1 7235   0.426   4.666   5.576
 2301SOL    HW2 7236   0.385   4.575   5.446
 2302SOL     OW 7237   1.540   3.998   3.849
 2302SOL    HW1 7238   1.479   3.923   3.872
 2302SOL    HW2 7239   1.562   4.050   3.932
 2303SOL     OW 7240   1.303   4.562   3.766
 2303SOL    HW1 7241   1.337   4.469   3.781
 2303SOL    HW2 7242   1.321   4.589   3.671
 2304SOL     OW 7243   1.068   5.057   4.573
 2304SOL    HW1 7244   1.075   4.973   4.518
 2304SOL    HW2 7245   1.130   5.126   4.537
 2305SOL     OW 7246   0.319   4.534   4.673
 2305SOL    HW1 7247   0.412   4.570   4.678
 2305SOL    HW2 7248   0.313   4.449   4.725
 2306SOL     OW 7249   0.339   4.233   4.730
 2306SOL    HW1 7250   0.287   4.150   4.713
 2306SOL    HW2 7251   0.416   4.238   4.666
 2307SOL     OW 7252   1.138   4.104   5.402
 2307SOL    HW1 7253   1.093   4.167   5.466
 2307SOL    HW2 7254   1.231   4.135   5.385
 2308SOL     OW 7255   1.160   3.931   5.201
 2308SOL    HW1 7256   1.160   3.995   5.278
 2308SOL    HW2 7257   1.188   3.979   5.118
 2309SOL     OW 7258   0.008   5.050   3.924
 2309SOL    HW1 7259  -0.085   5.071   3.893
 2309SOL    HW2 7260   0.018   4.951   3.937
 2310SOL     OW 7261   1.002   4.520   4.962
 2310SOL    HW1 7262   1.043   4.488   5.048
 2310SOL    HW2 7263   0.906   4.493   4.959
 2311SOL     OW 7264   0.040   4.268   4.838
 2311SOL    HW1 7265   0.125   4.235   4.797
 2311SOL    HW2 7266   0.053   4.283   4.936
 2312SOL     OW 7267   0.189   4.244   5.446
 2312SOL    HW1 7268   0.248   4.204   5.376
 2312SOL    HW2 7269   0.131   4.315   5.405
 2313SOL     OW 7270   1.369   4.674   5.384
 2313SOL    HW1 7271   1.408   4.763   5.404
 2313SOL    HW2 7272   1.379   4.654   5.287
 2314SOL     OW 7273   0.815   4.296   4.049
 2314SOL    HW1 7274   0.822   4.207   4.003
 2314SOL    HW2 7275   0.721   4.330   4.041
 2315SOL     OW 7276   1.657   4.328   4.930
 2315SOL    HW1 7277   1.619   4.259   4.992
 2315SOL    HW2 7278   1.739   4.292   4.886
 2316SOL     OW 7279   0.252   5.288   5.468
 2316SOL    HW1 7280   0.222   5.345   5.544
 2316SOL    HW2 7281   0.245   5.191   5.494
 2317SOL     OW 7282   0.671   4.188   4.993
 2317SOL    HW1 7283   0.637   4.099   4.963
 2317SOL    HW2 7284   0.697   4.242   4.913
 2318SOL     OW 7285   0.473   4.224   3.915
 2318SOL    HW1 7286   0.534   4.304   3.919
 2318SOL    HW2 7287   0.378   4.255   3.922
 2319SOL     OW 7288   0.159   4.861   5.190
 2319SOL    HW1 7289   0.181   4.800   5.266
 2319SOL    HW2 7290   0.169   4.812   5.104
 2320SOL     OW 7291   1.347   4.783   4.958
 2320SOL    HW1 7292   1.371   4.720   4.884
 2320SOL    HW2 7293   1.257   4.823   4.940
 2321SOL     OW 7294   1.302   4.579   4.033
 2321SOL    HW1 7295   1.216   4.548   4.075
 2321SOL    HW2 7296   1.298   4.565   3.934
 2322SOL     OW 7297   0.083   4.982   4.746
 2322SOL    HW1 7298   0.078   4.981   4.846
 2322SOL    HW2 7299   0.000   4.941   4.708
 2323SOL     OW 7300   0.688   5.386   5.440
 2323SOL    HW1 7301   0.632   5.467   5.449
 2323SOL    HW2 7302   0.740   5.390   5.354
 2324SOL     OW 7303   1.726   3.859   4.247
 2324SOL    HW1 7304   1.799   3.842   4.180
 2324SOL    HW2 7305   1.695   3.772   4.285
 2325SOL     OW 7306   1.280   4.651   4.396
 2325SOL    HW1 7307   1.340   4.570   4.398
 2325SOL    HW2 7308   1.320   4.720   4.336
 2326SOL     OW 7309   0.830   4.997   5.146
 2326SOL    HW1 7310   0.825   5.030   5.241
 2326SOL    HW2 7311   0.744   5.016   5.100
 2327SOL     OW 7312   1.841   3.899   4.687
 2327SOL    HW1 7313   1.880   3.814   4.651
 2327SOL    HW2 7314   1.743   3.901   4.668
 2328SOL     OW 7315   0.263   4.050   4.444
 2328SOL    HW1 7316   0.184   4.101   4.410
 2328SOL    HW2 7317   0.254   4.035   4.542
 2329SOL     OW 7318   0.822   4.726   5.096
 2329SOL    HW1 7319   0.862   4.725   5.004
 2329SOL    HW2 7320   0.832   4.818   5.136
 2330SOL     OW 7321   0.916   4.634   4.015
 2330SOL    HW1 7322   0.979   4.672   3.947
 2330SOL    HW2 7323   0.956   4.551   4.054
 2331SOL     OW 7324   0.372   5.012   5.214
 2331SOL    HW1 7325   0.359   5.105   5.180
 2331SOL    HW2 7326   0.288   4.960   5.201
 2332SOL     OW 7327   1.614   5.016   5.013
 2332SOL    HW1 7328   1.674   5.019   5.093
 2332SOL    HW2 7329   1.539   5.080   5.026
 2333SOL     OW 7330   1.039   4.822   4.420
 2333SOL    HW1 7331   0.969   4.775   4.474
 2333SOL    HW2 7332   1.098   4.754   4.377
 2334SOL     OW 7333   1.014   3.960   4.695
 2334SOL    HW1 7334   1.006   3.924   4.602
 2334SOL    HW2 7335   1.012   3.884   4.760
 2335SOL     OW 7336   1.709   4.109   5.105
 2335SOL    HW1 7337   1.782   4.178   5.109
 2335SOL    HW2 7338   1.737   4.034   5.046
 2336SOL     OW 7339   0.255   5.072   4.014
 2336SOL    HW1 7340   0.159   5.073   3.987
 2336SOL    HW2 7341   0.267   5.125   4.098
 2337SOL     OW 7342   0.105   4.737   5.450
 2337SOL    HW1 7343   0.028   4.704   5.504
 2337SOL    HW2 7344   0.190   4.707   5.492
 2338SOL     OW 7345   0.672   3.927   5.213
 2338SOL    HW1 7346   0.762   3.911   5.173
 2338SOL    HW2 7347   0.680   3.932   5.312
 2339SOL     OW 7348   0.075   4.069   3.757
 2339SOL    HW1 7349  -0.017   4.041   3.728
 2339SOL    HW2 7350   0.106   4.146   3.701
 2340SOL     OW 7351   1.440   4.580   5.122
 2340SOL    HW1 7352   1.383   4.632   5.059
 2340SOL    HW2 7353   1.536   4.592   5.098
 2341SOL     OW 7354   0.072   3.890   4.042
 2341SOL    HW1 7355   0.055   3.973   3.988
 2341SOL    HW2 7356   0.162   3.853   4.020
 2342SOL     OW 7357   1.183   5.059   3.843
 2342SOL    HW1 7358   1.084   5.048   3.845
 2342SOL    HW2 7359   1.217   5.074   3.936
 2343SOL     OW 7360   0.613   4.566   5.155
 2343SOL    HW1 7361   0.669   4.647   5.138
 2343SOL    HW2 7362   0.672   4.486   5.158
 2344SOL     OW 7363   0.716   4.289   5.432
 2344SOL    HW1 7364   0.735   4.354   5.506
 2344SOL    HW2 7365   0.776   4.209   5.441
 2345SOL     OW 7366   1.450   4.944   5.357
 2345SOL    HW1 7367   1.441   4.934   5.456
 2345SOL    HW2 7368   1.546   4.937   5.331
 2346SOL     OW 7369   1.674   4.607   4.978
 2346SOL    HW1 7370   1.647   4.518   4.941
 2346SOL    HW2 7371   1.675   4.675   4.905
 2347SOL     OW 7372   1.225   4.049   4.173
 2347SOL    HW1 7373   1.290   3.975   4.162
 2347SOL    HW2 7374   1.245   4.099   4.257
 2348SOL     OW 7375   0.594   4.469   4.376
 2348SOL    HW1 7376   0.644   4.554   4.357
 2348SOL    HW2 7377   0.506   4.471   4.328
 2349SOL     OW 7378   1.777   4.066   5.366
 2349SOL    HW1 7379   1.760   4.097   5.272
 2349SOL    HW2 7380   1.693   4.029   5.404
 2350SOL     OW 7381   1.730   4.658   5.241
 2350SOL    HW1 7382   1.768   4.749   5.256
 2350SOL    HW2 7383   1.722   4.641   5.142
 2351SOL     OW 7384   0.859   5.098   3.740
 2351SOL    HW1 7385   0.813   5.113   3.828
 2351SOL    HW2 7386   0.903   5.183   3.710
 2352SOL     OW 7387   0.859   4.680   4.585
 2352SOL    HW1 7388   0.913   4.611   4.633
 2352SOL    HW2 7389   0.827   4.749   4.651
 2353SOL     OW 7390   1.083   4.708   3.811
 2353SOL    HW1 7391   1.060   4.761   3.729
 2353SOL    HW2 7392   1.164   4.652   3.792
 2354SOL     OW 7393   0.221   5.038   5.568
 2354SOL    HW1 7394   0.156   4.965   5.547
 2354SOL    HW2 7395   0.225   5.052   5.666
 2355SOL     OW 7396   0.079   4.964   4.377
 2355SOL    HW1 7397   0.078   4.917   4.465
 2355SOL    HW2 7398   0.161   4.936   4.326
 2356SOL     OW 7399   0.672   5.115   5.348
 2356SOL    HW1 7400   0.594   5.065   5.386
 2356SOL    HW2 7401   0.669   5.210   5.379
 2357SOL     OW 7402   1.824   3.916   4.951
 2357SOL    HW1 7403   1.820   3.826   4.995
 2357SOL    HW2 7404   1.827   3.905   4.852
 2358SOL     OW 7405   0.428   4.148   4.244
 2358SOL    HW1 7406   0.458   4.076   4.182
 2358SOL    HW2 7407   0.389   4.108   4.327
 2359SOL     OW 7408   1.705   5.211   4.828
 2359SOL    HW1 7409   1.612   5.186   4.801
 2359SOL    HW2 7410   1.731   5.161   4.910
 2360SOL     OW 7411   0.317   4.271   5.004
 2360SOL    HW1 7412   0.355   4.212   5.076
 2360SOL    HW2 7413   0.357   4.245   4.916
 2361SOL     OW 7414   1.424   3.938   4.836
 2361SOL    HW1 7415   1.476   3.873   4.891
 2361SOL    HW2 7416   1.375   4.001   4.897
 2362SOL     OW 7417   1.001   3.758   4.878
 2362SOL    HW1 7418   0.938   3.686   4.847
 2362SOL    HW2 7419   1.094   3.722   4.878
 2363SOL     OW 7420   0.770   5.054   4.025
 2363SOL    HW1 7421   0.724   4.967   4.042
 2363SOL    HW2 7422   0.861   5.051   4.066
 2364SOL     OW 7423   0.618   5.291   5.008
 2364SOL    HW1 7424   0.613   5.373   5.065
 2364SOL    HW2 7425   0.707   5.288   4.963
 2365SOL     OW 7426   1.352   3.776   3.892
 2365SOL    HW1 7427   1.387   3.735   3.808
 2365SOL    HW2 7428   1.262   3.738   3.912
 2366SOL     OW 7429   1.300   4.177   4.415
 2366SOL    HW1 7430   1.241   4.257   4.419
 2366SOL    HW2 7431   1.315   4.142   4.508
 2367SOL     OW 7432   1.593   3.945   4.606
 2367SOL    HW1 7433   1.509   3.944   4.660
 2367SOL    HW2 7434   1.595   4.028   4.550
 2368SOL     OW 7435   0.039   4.801   4.024
 2368SOL    HW1 7436   0.138   4.790   4.015
 2368SOL    HW2 7437  -0.001   4.715   4.056
 2369SOL     OW 7438   0.230   4.352   5.699
 2369SOL    HW1 7439   0.137   4.350   5.736
 2369SOL    HW2 7440   0.231   4.313   5.607
 2370SOL     OW 7441   0.225   3.999   6.582
 2370SOL    HW1 7442   0.260   3.982   6.674
 2370SOL    HW2 7443   0.137   3.954   6.570
 2371SOL     OW 7444   0.019   4.092   6.233
 2371SOL    HW1 7445  -0.063   4.135   6.272
 2371SOL    HW2 7446  -0.009   4.019   6.170
 2372SOL     OW 7447   0.569   4.999   6.751
 2372SOL    HW1 7448   0.476   4.992   6.714
 2372SOL    HW2 7449   0.580   5.088   6.795
 2373SOL     OW 7450   1.555   5.235   6.289
 2373SOL    HW1 7451   1.498   5.219   6.370
 2373SOL    HW2 7452   1.496   5.245   6.209
 2374SOL     OW 7453   1.135   4.427   6.303
 2374SOL    HW1 7454   1.192   4.505   6.278
 2374SOL    HW2 7455   1.075   4.453   6.379
 2375SOL     OW 7456   1.755   4.331   5.817
 2375SOL    HW1 7457   1.743   4.318   5.718
 2375SOL    HW2 7458   1.725   4.250   5.866
 2376SOL     OW 7459   0.768   4.868   6.609
 2376SOL    HW1 7460   0.690   4.885   6.669
 2376SOL    HW2 7461   0.802   4.955   6.573
 2377SOL     OW 7462   0.850   4.522   7.409
 2377SOL    HW1 7463   0.846   4.598   7.474
 2377SOL    HW2 7464   0.872   4.558   7.318
 2378SOL     OW 7465   0.685   4.736   6.251
 2378SOL    HW1 7466   0.754   4.720   6.321
 2378SOL    HW2 7467   0.612   4.793   6.289
 2379SOL     OW 7468   0.686   4.885   7.389
 2379SOL    HW1 7469   0.746   4.964   7.403
 2379SOL    HW2 7470   0.600   4.916   7.348
 2380SOL     OW 7471   0.335   5.159   6.647
 2380SOL    HW1 7472   0.257   5.128   6.594
 2380SOL    HW2 7473   0.393   5.217   6.590
 2381SOL     OW 7474   1.460   5.229   6.925
 2381SOL    HW1 7475   1.484   5.323   6.951
 2381SOL    HW2 7476   1.444   5.175   7.007
 2382SOL     OW 7477   0.438   4.116   7.085
 2382SOL    HW1 7478   0.520   4.060   7.094
 2382SOL    HW2 7479   0.357   4.058   7.089
 2383SOL     OW 7480   1.603   4.171   6.323
 2383SOL    HW1 7481   1.529   4.217   6.273
 2383SOL    HW2 7482   1.654   4.239   6.376
 2384SOL     OW 7483   1.127   5.065   7.276
 2384SOL    HW1 7484   1.174   5.065   7.364
 2384SOL    HW2 7485   1.079   4.978   7.265
 2385SOL     OW 7486   0.230   5.158   6.124
 2385SOL    HW1 7487   0.204   5.254   6.124
 2385SOL    HW2 7488   0.159   5.104   6.169
 2386SOL     OW 7489   0.240   4.815   6.472
 2386SOL    HW1 7490   0.254   4.731   6.524
 2386SOL    HW2 7491   0.185   4.879   6.527
 2387SOL     OW 7492   0.606   4.688   5.709
 2387SOL    HW1 7493   0.613   4.772   5.655
 2387SOL    HW2 7494   0.652   4.701   5.797
 2388SOL     OW 7495   1.594   3.838   7.066
 2388SOL    HW1 7496   1.576   3.905   6.994
 2388SOL    HW2 7497   1.591   3.884   7.155
 2389SOL     OW 7498   0.122   4.367   6.149
 2389SOL    HW1 7499   0.077   4.279   6.166
 2389SOL    HW2 7500   0.121   4.421   6.233
 2390SOL     OW 7501   0.027   5.320   5.703
 2390SOL    HW1 7502   0.008   5.224   5.724
 2390SOL    HW2 7503  -0.006   5.378   5.778
 2391SOL     OW 7504   1.689   4.646   6.198
 2391SOL    HW1 7505   1.784   4.617   6.206
 2391SOL    HW2 7506   1.681   4.711   6.123
 2392SOL     OW 7507   1.641   4.832   6.018
 2392SOL    HW1 7508   1.727   4.834   5.966
 2392SOL    HW2 7509   1.655   4.879   6.106
 2393SOL     OW 7510   0.113   4.461   7.183
 2393SOL    HW1 7511   0.201   4.448   7.228
 2393SOL    HW2 7512   0.100   4.558   7.161
 2394SOL     OW 7513   0.613   5.089   6.312
 2394SOL    HW1 7514   0.564   5.002   6.321
 2394SOL    HW2 7515   0.590   5.132   6.225
 2395SOL     OW 7516   1.293   4.952   7.009
 2395SOL    HW1 7517   1.330   4.879   6.951
 2395SOL    HW2 7518   1.345   4.957   7.094
 2396SOL     OW 7519   0.809   3.728   6.088
 2396SOL    HW1 7520   0.849   3.819   6.079
 2396SOL    HW2 7521   0.709   3.736   6.094
 2397SOL     OW 7522   0.197   4.700   6.850
 2397SOL    HW1 7523   0.286   4.655   6.836
 2397SOL    HW2 7524   0.124   4.635   6.831
 2398SOL     OW 7525   1.525   4.723   5.776
 2398SOL    HW1 7526   1.462   4.647   5.789
 2398SOL    HW2 7527   1.573   4.741   5.862
 2399SOL     OW 7528   0.317   3.975   7.387
 2399SOL    HW1 7529   0.388   4.046   7.393
 2399SOL    HW2 7530   0.229   4.014   7.415
 2400SOL     OW 7531   1.466   5.141   6.539
 2400SOL    HW1 7532   1.407   5.147   6.619
 2400SOL    HW2 7533   1.451   5.053   6.493
 2401SOL     OW 7534   0.598   4.453   5.856
 2401SOL    HW1 7535   0.622   4.522   5.788
 2401SOL    HW2 7536   0.520   4.486   5.910
 2402SOL     OW 7537   1.281   4.069   6.530
 2402SOL    HW1 7538   1.195   4.019   6.517
 2402SOL    HW2 7539   1.343   4.015   6.586
 2403SOL     OW 7540   0.807   4.329   7.051
 2403SOL    HW1 7541   0.760   4.326   7.140
 2403SOL    HW2 7542   0.756   4.274   6.985
 2404SOL     OW 7543   1.394   4.193   7.260
 2404SOL    HW1 7544   1.374   4.236   7.348
 2404SOL    HW2 7545   1.472   4.131   7.269
 2405SOL     OW 7546   0.973   4.614   7.158
 2405SOL    HW1 7547   1.019   4.530   7.129
 2405SOL    HW2 7548   0.917   4.648   7.083
 2406SOL     OW 7549   0.991   4.134   6.828
 2406SOL    HW1 7550   0.914   4.168   6.882
 2406SOL    HW2 7551   0.957   4.083   6.749
 2407SOL     OW 7552   1.041   4.425   6.015
 2407SOL    HW1 7553   1.067   4.421   6.111
 2407SOL    HW2 7554   0.956   4.374   6.001
 2408SOL     OW 7555   0.076   4.535   6.375
 2408SOL    HW1 7556   0.175   4.523   6.384
 2408SOL    HW2 7557   0.052   4.630   6.396
 2409SOL     OW 7558   0.865   4.072   5.781
 2409SOL    HW1 7559   0.924   4.135   5.732
 2409SOL    HW2 7560   0.884   3.978   5.752
 2410SOL     OW 7561   1.719   4.309   7.417
 2410SOL    HW1 7562   1.693   4.398   7.381
 2410SOL    HW2 7563   1.717   4.241   7.344
 2411SOL     OW 7564   1.362   4.868   6.131
 2411SOL    HW1 7565   1.445   4.839   6.083
 2411SOL    HW2 7566   1.313   4.935   6.075
 2412SOL     OW 7567   0.550   3.920   6.471
 2412SOL    HW1 7568   0.545   3.915   6.571
 2412SOL    HW2 7569   0.552   4.016   6.442
 2413SOL     OW 7570   1.008   5.180   6.063
 2413SOL    HW1 7571   0.962   5.252   6.011
 2413SOL    HW2 7572   1.004   5.200   6.161
 2414SOL     OW 7573   1.795   4.790   6.459
 2414SOL    HW1 7574   1.733   4.775   6.383
 2414SOL    HW2 7575   1.743   4.801   6.544
 2415SOL     OW 7576   1.227   5.274   7.092
 2415SOL    HW1 7577   1.233   5.197   7.156
 2415SOL    HW2 7578   1.175   5.248   7.012
 2416SOL     OW 7579   0.321   4.667   5.828
 2416SOL    HW1 7580   0.403   4.706   5.786
 2416SOL    HW2 7581   0.294   4.585   5.779
 2417SOL     OW 7582   1.458   4.459   6.314
 2417SOL    HW1 7583   1.453   4.394   6.389
 2417SOL    HW2 7584   1.538   4.518   6.327
 2418SOL     OW 7585   0.461   4.990   7.313
 2418SOL    HW1 7586   0.411   4.991   7.227
 2418SOL    HW2 7587   0.398   4.972   7.389
 2419SOL     OW 7588   1.111   5.500   5.823
 2419SOL    HW1 7589   1.051   5.438   5.873
 2419SOL    HW2 7590   1.142   5.456   5.738
 2420SOL     OW 7591   0.202   4.009   7.084
 2420SOL    HW1 7592   0.122   4.069   7.071
 2420SOL    HW2 7593   0.192   3.960   7.170
 2421SOL     OW 7594   1.632   5.101   5.667
 2421SOL    HW1 7595   1.600   5.195   5.657
 2421SOL    HW2 7596   1.556   5.038   5.655
 2422SOL     OW 7597   1.400   3.831   6.012
 2422SOL    HW1 7598   1.376   3.794   5.922
 2422SOL    HW2 7599   1.499   3.847   6.016
 2423SOL     OW 7600   0.382   4.424   6.066
 2423SOL    HW1 7601   0.427   4.334   6.063
 2423SOL    HW2 7602   0.288   4.413   6.099
 2424SOL     OW 7603   1.547   3.946   7.315
 2424SOL    HW1 7604   1.542   3.983   7.407
 2424SOL    HW2 7605   1.475   3.877   7.303
 2425SOL     OW 7606   0.614   3.846   5.703
 2425SOL    HW1 7607   0.712   3.824   5.710
 2425SOL    HW2 7608   0.583   3.829   5.610
 2426SOL     OW 7609   0.781   3.988   7.335
 2426SOL    HW1 7610   0.848   3.927   7.378
 2426SOL    HW2 7611   0.708   4.007   7.400
 2427SOL     OW 7612   1.351   4.314   7.019
 2427SOL    HW1 7613   1.379   4.271   7.104
 2427SOL    HW2 7614   1.376   4.410   7.020
 2428SOL     OW 7615   0.803   5.126   6.510
 2428SOL    HW1 7616   0.893   5.140   6.468
 2428SOL    HW2 7617   0.732   5.128   6.439
 2429SOL     OW 7618   0.922   4.227   6.485
 2429SOL    HW1 7619   0.897   4.218   6.389
 2429SOL    HW2 7620   0.970   4.145   6.516
 2430SOL     OW 7621   0.539   3.788   6.098
 2430SOL    HW1 7622   0.458   3.789   6.156
 2430SOL    HW2 7623   0.542   3.871   6.043
 2431SOL     OW 7624   1.434   4.912   5.627
 2431SOL    HW1 7625   1.466   4.836   5.684
 2431SOL    HW2 7626   1.342   4.939   5.657
 2432SOL     OW 7627   0.297   3.759   5.757
 2432SOL    HW1 7628   0.346   3.843   5.736
 2432SOL    HW2 7629   0.359   3.694   5.802
 2433SOL     OW 7630   0.935   3.960   6.066
 2433SOL    HW1 7631   0.887   4.001   5.988
 2433SOL    HW2 7632   1.034   3.958   6.047
 2434SOL     OW 7633   1.076   4.407   7.050
 2434SOL    HW1 7634   0.996   4.346   7.053
 2434SOL    HW2 7635   1.157   4.354   7.026
 2435SOL     OW 7636   1.227   5.294   6.379
 2435SOL    HW1 7637   1.248   5.368   6.314
 2435SOL    HW2 7638   1.295   5.294   6.452
 2436SOL     OW 7639   0.459   4.876   6.327
 2436SOL    HW1 7640   0.388   4.849   6.392
 2436SOL    HW2 7641   0.433   4.848   6.234
 2437SOL     OW 7642   1.032   4.273   5.602
 2437SOL    HW1 7643   0.991   4.355   5.563
 2437SOL    HW2 7644   1.096   4.299   5.675
 2438SOL     OW 7645   0.078   4.280   6.972
 2438SOL    HW1 7646   0.170   4.279   6.931
 2438SOL    HW2 7647   0.072   4.354   7.039
 2439SOL     OW 7648   0.561   3.946   6.733
 2439SOL    HW1 7649   0.599   3.862   6.770
 2439SOL    HW2 7650   0.473   3.965   6.777
 2440SOL     OW 7651   0.866   4.178   6.228
 2440SOL    HW1 7652   0.834   4.250   6.166
 2440SOL    HW2 7653   0.890   4.097   6.175
 2441SOL     OW 7654   1.017   3.763   6.339
 2441SOL    HW1 7655   0.945   3.768   6.270
 2441SOL    HW2 7656   0.993   3.694   6.408
 2442SOL     OW 7657   1.429   4.897   6.453
 2442SOL    HW1 7658   1.374   4.813   6.446
 2442SOL    HW2 7659   1.455   4.926   6.361
 2443SOL     OW 7660   1.466   4.314   6.578
 2443SOL    HW1 7661   1.436   4.219   6.585
 2443SOL    HW2 7662   1.539   4.330   6.644
 2444SOL     OW 7663   1.857   4.557   5.963
 2444SOL    HW1 7664   1.899   4.493   6.027
 2444SOL    HW2 7665   1.819   4.506   5.885
 2445SOL     OW 7666   0.488   5.109   5.760
 2445SOL    HW1 7667   0.401   5.094   5.807
 2445SOL    HW2 7668   0.471   5.135   5.665
 2446SOL     OW 7669   1.664   5.004   6.243
 2446SOL    HW1 7670   1.763   5.012   6.257
 2446SOL    HW2 7671   1.619   5.088   6.274
 2447SOL     OW 7672   1.390   4.299   5.664
 2447SOL    HW1 7673   1.336   4.278   5.745
 2447SOL    HW2 7674   1.481   4.258   5.673
 2448SOL     OW 7675   0.527   3.980   5.914
 2448SOL    HW1 7676   0.554   3.921   5.839
 2448SOL    HW2 7677   0.527   4.075   5.883
 2449SOL     OW 7678   1.754   4.947   7.174
 2449SOL    HW1 7679   1.845   4.908   7.161
 2449SOL    HW2 7680   1.762   5.043   7.198
 2450SOL     OW 7681   1.064   5.071   6.926
 2450SOL    HW1 7682   0.984   5.048   6.981
 2450SOL    HW2 7683   1.147   5.045   6.975
 2451SOL     OW 7684   1.111   4.919   6.686
 2451SOL    HW1 7685   1.071   4.963   6.767
 2451SOL    HW2 7686   1.070   4.956   6.603
 2452SOL     OW 7687   1.638   4.823   6.665
 2452SOL    HW1 7688   1.643   4.904   6.724
 2452SOL    HW2 7689   1.552   4.825   6.614
 2453SOL     OW 7690   0.915   3.813   6.988
 2453SOL    HW1 7691   0.940   3.793   6.893
 2453SOL    HW2 7692   0.987   3.869   7.030
 2454SOL     OW 7693   0.980   4.840   7.305
 2454SOL    HW1 7694   0.881   4.846   7.315
 2454SOL    HW2 7695   1.003   4.760   7.249
 2455SOL     OW 7696   0.705   4.774   5.954
 2455SOL    HW1 7697   0.691   4.781   6.053
 2455SOL    HW2 7698   0.789   4.723   5.936
 2456SOL     OW 7699   0.410   4.537   6.837
 2456SOL    HW1 7700   0.496   4.549   6.887
 2456SOL    HW2 7701   0.368   4.450   6.864
 2457SOL     OW 7702   1.274   4.110   6.848
 2457SOL    HW1 7703   1.295   4.184   6.912
 2457SOL    HW2 7704   1.185   4.127   6.805
 2458SOL     OW 7705   0.064   5.288   6.917
 2458SOL    HW1 7706   0.018   5.370   6.883
 2458SOL    HW2 7707   0.162   5.307   6.926
 2459SOL     OW 7708   0.367   4.824   6.087
 2459SOL    HW1 7709   0.360   4.907   6.031
 2459SOL    HW2 7710   0.371   4.744   6.027
 2460SOL     OW 7711   0.566   4.261   6.451
 2460SOL    HW1 7712   0.578   4.327   6.377
 2460SOL    HW2 7713   0.612   4.295   6.534
 2461SOL     OW 7714   1.252   5.072   5.974
 2461SOL    HW1 7715   1.302   5.149   6.014
 2461SOL    HW2 7716   1.157   5.074   6.006
 2462SOL     OW 7717   1.272   5.169   6.728
 2462SOL    HW1 7718   1.319   5.182   6.815
 2462SOL    HW2 7719   1.206   5.095   6.737
 2463SOL     OW 7720   1.582   4.363   6.058
 2463SOL    HW1 7721   1.551   4.424   6.131
 2463SOL    HW2 7722   1.632   4.415   5.989
 2464SOL     OW 7723   0.354   5.234   6.915
 2464SOL    HW1 7724   0.333   5.190   6.828
 2464SOL    HW2 7725   0.451   5.260   6.918
 2465SOL     OW 7726   0.402   4.475   7.184
 2465SOL    HW1 7727   0.470   4.530   7.137
 2465SOL    HW2 7728   0.442   4.387   7.211
 2466SOL     OW 7729   1.587   4.503   7.256
 2466SOL    HW1 7730   1.495   4.541   7.251
 2466SOL    HW2 7731   1.647   4.550   7.191
 2467SOL     OW 7732   1.013   3.829   7.356
 2467SOL    HW1 7733   1.019   3.914   7.304
 2467SOL    HW2 7734   1.045   3.753   7.299
 2468SOL     OW 7735   0.504   3.774   7.326
 2468SOL    HW1 7736   0.462   3.717   7.256
 2468SOL    HW2 7737   0.438   3.843   7.358
 2469SOL     OW 7738   0.573   4.594   6.615
 2469SOL    HW1 7739   0.617   4.683   6.606
 2469SOL    HW2 7740   0.510   4.594   6.692
 2470SOL     OW 7741   1.360   4.586   6.631
 2470SOL    HW1 7742   1.285   4.586   6.565
 2470SOL    HW2 7743   1.397   4.494   6.640
 2471SOL     OW 7744   1.209   4.249   5.861
 2471SOL    HW1 7745   1.222   4.165   5.915
 2471SOL    HW2 7746   1.180   4.323   5.921
 2472SOL     OW 7747   0.307   3.937   6.817
 2472SOL    HW1 7748   0.284   3.974   6.907
 2472SOL    HW2 7749   0.277   3.842   6.811
 2473SOL     OW 7750   0.037   5.034   6.868
 2473SOL    HW1 7751   0.090   4.985   6.936
 2473SOL    HW2 7752   0.059   5.132   6.873
 2474SOL     OW 7753   0.732   4.358   6.650
 2474SOL    HW1 7754   0.791   4.332   6.574
 2474SOL    HW2 7755   0.704   4.454   6.639
 2475SOL     OW 7756   1.728   4.659   7.440
 2475SOL    HW1 7757   1.682   4.652   7.351
 2475SOL    HW2 7758   1.666   4.703   7.506
 2476SOL     OW 7759   0.307   3.787   6.204
 2476SOL    HW1 7760   0.296   3.881   6.237
 2476SOL    HW2 7761   0.302   3.724   6.281
 2477SOL     OW 7762   1.622   4.091   5.960
 2477SOL    HW1 7763   1.624   4.015   6.024
 2477SOL    HW2 7764   1.574   4.168   6.000
 2478SOL     OW 7765   1.023   4.490   6.552
 2478SOL    HW1 7766   1.038   4.511   6.648
 2478SOL    HW2 7767   0.993   4.395   6.543
 2479SOL     OW 7768   1.859   5.242   7.191
 2479SOL    HW1 7769   1.873   5.269   7.096
 2479SOL    HW2 7770   1.942   5.264   7.244
 2480SOL     OW 7771   0.350   4.622   7.390
 2480SOL    HW1 7772   0.426   4.666   7.438
 2480SOL    HW2 7773   0.385   4.575   7.308
 2481SOL     OW 7774   1.540   3.998   5.711
 2481SOL    HW1 7775   1.479   3.923   5.734
 2481SOL    HW2 7776   1.562   4.050   5.794
 2482SOL     OW 7777   1.303   4.562   5.628
 2482SOL    HW1 7778   1.337   4.469   5.643
 2482SOL    HW2 7779   1.321   4.589   5.533
 2483SOL     OW 7780   1.068   5.057   6.435
 2483SOL    HW1 7781   1.075   4.973   6.380
 2483SOL    HW2 7782   1.130   5.126   6.399
 2484SOL     OW 7783   0.319   4.534   6.535
 2484SOL    HW1 7784   0.412   4.570   6.540
 2484SOL    HW2 7785   0.313   4.449   6.587
 2485SOL     OW 7786   0.339   4.233   6.592
 2485SOL    HW1 7787   0.287   4.150   6.575
 2485SOL    HW2 7788   0.416   4.238   6.528
 2486SOL     OW 7789   1.138   4.104   7.264
 2486SOL    HW1 7790   1.093   4.167   7.328
 2486SOL    HW2 7791   1.231   4.135   7.247
 2487SOL     OW 7792   1.160   3.931   7.063
 2487SOL    HW1 7793   1.160   3.995   7.140
 2487SOL    HW2 7794   1.188   3.979   6.980
 2488SOL     OW 7795   0.008   5.050   5.786
 2488SOL    HW1 7796  -0.085   5.071   5.755
 2488SOL    HW2 7797   0.018   4.951   5.799
 2489SOL     OW 7798   1.002   4.520   6.824
 2489SOL    HW1 7799   1.043   4.488   6.910
 2489SOL    HW2 7800   0.906   4.493   6.821
 2490SOL     OW 7801   0.040   4.268   6.700
 2490SOL    HW1 7802   0.125   4.235   6.659
 2490SOL    HW2 7803   0.053   4.283   6.798
 2491SOL     OW 7804   0.189   4.244   7.308
 2491SOL    HW1 7805   0.248   4.204   7.238
 2491SOL    HW2 7806   0.131   4.315   7.267
 2492SOL     OW 7807   1.369   4.674   7.246
 2492SOL    HW1 7808   1.408   4.763   7.266
 2492SOL    HW2 7809   1.379   4.654   7.149
 2493SOL     OW 7810   0.815   4.296   5.911
 2493SOL    HW1 7811   0.822   4.207   5.865
 2493SOL    HW2 7812   0.721   4.330   5.903
 2494SOL     OW 7813   1.657   4.328   6.792
 2494SOL    HW1 7814   1.619   4.259   6.854
 2494SOL    HW2 7815   1.739   4.292   6.748
 2495SOL     OW 7816   0.252   5.288   7.330
 2495SOL    HW1 7817   0.222   5.345   7.406
 2495SOL    HW2 7818   0.245   5.191   7.356
 2496SOL     OW 7819   0.671   4.188   6.855
 2496SOL    HW1 7820   0.637   4.099   6.825
 2496SOL    HW2 7821   0.697   4.242   6.775
 2497SOL     OW 7822   0.473   4.224   5.777
 2497SOL    HW1 7823   0.534   4.304   5.781
 2497SOL    HW2 7824   0.378   4.255   5.784
 2498SOL     OW 7825   0.159   4.861   7.052
 2498SOL    HW1 7826   0.181   4.800   7.128
 2498SOL    HW2 7827   0.169   4.812   6.966
 2499SOL     OW 7828   1.347   4.783   6.820
 2499SOL    HW1 7829   1.371   4.720   6.746
 2499SOL    HW2 7830   1.257   4.823   6.802
 2500SOL     OW 7831   1.302   4.579   5.895
 2500SOL    HW1 7832   1.216   4.548   5.937
 2500SOL    HW2 7833   1.298   4.565   5.796
 2501SOL     OW 7834   0.083   4.982   6.608
 2501SOL    HW1 7835   0.078   4.981   6.708
 2501SOL    HW2 7836   0.000   4.941   6.570
 2502SOL     OW 7837   0.688   5.386   7.302
 2502SOL    HW1 7838   0.632   5.467   7.311
 2502SOL    HW2 7839   0.740   5.390   7.216
 2503SOL     OW 7840   1.726   3.859   6.109
 2503SOL    HW1 7841   1.799   3.842   6.042
 2503SOL    HW2 7842   1.695   3.772   6.147
 2504SOL     OW 7843   1.280   4.651   6.258
 2504SOL    HW1 7844   1.340   4.570   6.260
 2504SOL    HW2 7845   1.320   4.720   6.198
 2505SOL     OW 7846   0.830   4.997   7.008
 2505SOL    HW1 7847   0.825   5.030   7.103
 2505SOL    HW2 7848   0.744   5.016   6.962
 2506SOL     OW 7849   1.841   3.899   6.549
 2506SOL    HW1 7850   1.880   3.814   6.513
 2506SOL    HW2 7851   1.743   3.901   6.530
 2507SOL     OW 7852   0.263   4.050   6.306
 2507SOL    HW1 7853   0.184   4.101   6.272
 2507SOL    HW2 7854   0.254   4.035   6.404
 2508SOL     OW 7855   0.822   4.726   6.958
 2508SOL    HW1 7856   0.862   4.725   6.866
 2508SOL    HW2 7857   0.832   4.818   6.998
 2509SOL     OW 7858   0.916   4.634   5.877
 2509SOL    HW1 7859   0.979   4.672   5.809
 2509SOL    HW2 7860   0.956   4.551   5.916
 2510SOL     OW 7861   0.372   5.012   7.076
 2510SOL    HW1 7862   0.359   5.105   7.042
 2510SOL    HW2 7863   0.288   4.960   7.063
 2511SOL     OW 7864   1.614   5.016   6.875
 2511SOL    HW1 7865   1.674   5.019   6.955
 2511SOL    HW2 7866   1.539   5.080   6.888
 2512SOL     OW 7867   1.039   4.822   6.282
 2512SOL    HW1 7868   0.969   4.775   6.336
 2512SOL    HW2 7869   1.098   4.754   6.239
 2513SOL     OW 7870   1.014   3.960   6.557
 2513SOL    HW1 7871   1.006   3.924   6.464
 2513SOL    HW2 7872   1.012   3.884   6.622
 2514SOL     OW 7873   1.709   4.109   6.967
 2514SOL    HW1 7874   1.782   4.178   6.971
 2514SOL    HW2 7875   1.737   4.034   6.908
 2515SOL     OW 7876   0.255   5.072   5.876
 2515SOL    HW1 7877   0.159   5.073   5.849
 2515SOL    HW2 7878   0.267   5.125   5.960
 2516SOL     OW 7879   0.105   4.737   7.312
 2516SOL    HW1 7880   0.028   4.704   7.366
 2516SOL    HW2 7881   0.190   4.707   7.354
 2517SOL     OW 7882   0.672   3.927   7.075
 2517SOL    HW1 7883   0.762   3.911   7.035
 2517SOL    HW2 7884   0.680   3.932   7.174
 2518SOL     OW 7885   0.075   4.069   5.619
 2518SOL    HW1 7886  -0.017   4.041   5.590
 2518SOL    HW2 7887   0.106   4.146   5.563
 2519SOL     OW 7888   1.440   4.580   6.984
 2519SOL    HW1 7889   1.383   4.632   6.921
 2519SOL    HW2 7890   1.536   4.592   6.960
 2520SOL     OW 7891   0.072   3.890   5.904
 2520SOL    HW1 7892   0.055   3.973   5.850
 2520SOL    HW2 7893   0.162   3.853   5.882
 2521SOL     OW 7894   1.183   5.059   5.705
 2521SOL    HW1 7895   1.084   5.048   5.707
 2521SOL    HW2 7896   1.217   5.074   5.798
 2522SOL     OW 7897   0.613   4.566   7.017
 2522SOL    HW1 7898   0.669   4.647   7.000
 2522SOL    HW2 7899   0.672   4.486   7.020
 2523SOL     OW 7900   0.716   4.289   7.294
 2523SOL    HW1 7901   0.735   4.354   7.368
 2523SOL    HW2 7902   0.776   4.209   7.303
 2524SOL     OW 7903   1.450   4.944   7.219
 2524SOL    HW1 7904   1.441   4.934   7.318
 2524SOL    HW2 7905   1.546   4.937   7.193
 2525SOL     OW 7906   1.674   4.607   6.840
 2525SOL    HW1 7907   1.647   4.518   6.803
 2525SOL    HW2 7908   1.675   4.675   6.767
 2526SOL     OW 7909   1.225   4.049   6.035
 2526SOL    HW1 7910   1.290   3.975   6.024
 2526SOL    HW2 7911   1.245   4.099   6.119
 2527SOL     OW 7912   0.594   4.469   6.238
 2527SOL    HW1 7913   0.644   4.554   6.219
 2527SOL    HW2 7914   0.506   4.471   6.190
 2528SOL     OW 7915   1.777   4.066   7.228
 2528SOL    HW1 7916   1.760   4.097   7.134
 2528SOL    HW2 7917   1.693   4.029   7.266
 2529SOL     OW 7918   1.730   4.658   7.103
 2529SOL    HW1 7919   1.768   4.749   7.118
 2529SOL    HW2 7920   1.722   4.641   7.004
 2530SOL     OW 7921   0.859   5.098   5.602
 2530SOL    HW1 7922   0.813   5.113   5.690
 2530SOL    HW2 7923   0.903   5.183   5.572
 2531SOL     OW 7924   0.859   4.680   6.447
 2531SOL    HW1 7925   0.913   4.611   6.495
 2531SOL    HW2 7926   0.827   4.749   6.513
 2532SOL     OW 7927   1.083   4.708   5.673
 2532SOL    HW1 7928   1.060   4.761   5.591
 2532SOL    HW2 7929   1.164   4.652   5.654
 2533SOL     OW 7930   0.221   5.038   7.430
 2533SOL    HW1 7931   0.156   4.965   7.409
 2533SOL    HW2 7932   0.225   5.052   7.528
 2534SOL     OW 7933   0.079   4.964   6.239
 2534SOL    HW1 7934   0.078   4.917   6.327
 2534SOL    HW2 7935   0.161   4.936   6.188
 2535SOL     OW 7936   0.672   5.115   7.210
 2535SOL    HW1 7937   0.594   5.065   7.248
 2535SOL    HW2 7938   0.669   5.210   7.241
 2536SOL     OW 7939   1.824   3.916   6.813
 2536SOL    HW1 7940   1.820   3.826   6.857
 2536SOL    HW2 7941   1.827   3.905   6.714
 2537SOL     OW 7942   0.428   4.148   6.106
 2537SOL    HW1 7943   0.458   4.076   6.044
 2537SOL    HW2 7944   0.389   4.108   6.189
 2538SOL     OW 7945   1.705   5.211   6.690
 2538SOL    HW1 7946   1.612   5.186   6.663
 2538SOL    HW2 7947   1.731   5.161   6.772
 2539SOL     OW 7948   0.317   4.271   6.866
 2539SOL    HW1 7949   0.355   4.212   6.938
 2539SOL    HW2 7950   0.357   4.245   6.778
 2540SOL     OW 7951   1.424   3.938   6.698
 2540SOL    HW1 7952   1.476   3.873   6.753
 2540SOL    HW2 7953   1.375   4.001   6.759
 2541SOL     OW 7954   1.001   3.758   6.740
 2541SOL    HW1 7955   0.938   3.686   6.709
 2541SOL    HW2 7956   1.094   3.722   6.740
 2542SOL     OW 7957   0.770   5.054   5.887
 2542SOL    HW1 7958   0.724   4.967   5.904
 2542SOL    HW2 7959   0.861   5.051   5.928
 2543SOL     OW 7960   0.618   5.291   6.870
 2543SOL    HW1 7961   0.613   5.373   6.927
 2543SOL    HW2 7962   0.707   5.288   6.825
 2544SOL     OW 7963   1.352   3.776   5.754
 2544SOL    HW1 7964   1.387   3.735   5.670
 2544SOL    HW2 7965   1.262   3.738   5.774
 2545SOL     OW 7966   1.300   4.177   6.277
 2545SOL    HW1 7967   1.241   4.257   6.281
 2545SOL    HW2 7968   1.315   4.142   6.370
 2546SOL     OW 7969   1.593   3.945   6.468
 2546SOL    HW1 7970   1.509   3.944   6.522
 2546SOL    HW2 7971   1.595   4.028   6.412
 2547SOL     OW 7972   0.039   4.801   5.886
 2547SOL    HW1 7973   0.138   4.790   5.877
 2547SOL    HW2 7974  -0.001   4.715   5.918
 2548SOL     OW 7975   0.230   4.352   7.561
 2548SOL    HW1 7976   0.137   4.350   7.598
 2548SOL    HW2 7977   0.231   4.313   7.469
 2549SOL     OW 7978   1.755   4.331   7.679
 2549SOL    HW1 7979   1.743   4.318   7.580
 2549SOL    HW2 7980   1.725   4.250   7.728
 2550SOL     OW 7981   0.231   5.437   7.931
 2550SOL    HW1 7982   0.265   5.514   7.985
 2550SOL    HW2 7983   0.275   5.437   7.841
 2551SOL     OW 7984   0.230   5.158   7.986
 2551SOL    HW1 7985   0.204   5.254   7.986
 2551SOL    HW2 7986   0.159   5.104   8.031
 2552SOL     OW 7987   0.606   4.688   7.571
 2552SOL    HW1 7988   0.613   4.772   7.517
 2552SOL    HW2 7989   0.652   4.701   7.659
 2553SOL     OW 7990   0.027   5.320   7.565
 2553SOL    HW1 7991   0.008   5.224   7.586
 2553SOL    HW2 7992  -0.006   5.378   7.640
 2554SOL     OW 7993   1.689   4.646   8.060
 2554SOL    HW1 7994   1.784   4.617   8.068
 2554SOL    HW2 7995   1.681   4.711   7.985
 2555SOL     OW 7996   1.641   4.832   7.880
 2555SOL    HW1 7997   1.727   4.834   7.828
 2555SOL    HW2 7998   1.655   4.879   7.968
 2556SOL     OW 7999   0.809   3.728   7.950
 2556SOL    HW1 8000   0.849   3.819   7.941
 2556SOL    HW2 8001   0.709   3.736   7.956
 2557SOL     OW 8002   1.525   4.723   7.638
 2557SOL    HW1 8003   1.462   4.647   7.651
 2557SOL    HW2 8004   1.573   4.741   7.724
 2558SOL     OW 8005   0.598   4.453   7.718
 2558SOL    HW1 8006   0.622   4.522   7.650
 2558SOL    HW2 8007   0.520   4.486   7.772
 2559SOL     OW 8008   0.076   4.535   8.237
 2559SOL    HW1 8009   0.175   4.523   8.246
 2559SOL    HW2 8010   0.052   4.630   8.258
 2560SOL     OW 8011   0.865   4.072   7.643
 2560SOL    HW1 8012   0.924   4.135   7.594
 2560SOL    HW2 8013   0.884   3.978   7.614
 2561SOL     OW 8014   0.321   4.667   7.690
 2561SOL    HW1 8015   0.403   4.706   7.648
 2561SOL    HW2 8016   0.294   4.585   7.641
 2562SOL     OW 8017   1.111   5.500   7.685
 2562SOL    HW1 8018   1.051   5.438   7.735
 2562SOL    HW2 8019   1.142   5.456   7.600
 2563SOL     OW 8020   1.632   5.101   7.529
 2563SOL    HW1 8021   1.600   5.195   7.519
 2563SOL    HW2 8022   1.556   5.038   7.517
 2564SOL     OW 8023   1.400   3.831   7.874
 2564SOL    HW1 8024   1.376   3.794   7.784
 2564SOL    HW2 8025   1.499   3.847   7.878
 2565SOL     OW 8026   0.382   4.424   7.928
 2565SOL    HW1 8027   0.427   4.334   7.925
 2565SOL    HW2 8028   0.288   4.413   7.961
 2566SOL     OW 8029   0.614   3.846   7.565
 2566SOL    HW1 8030   0.712   3.824   7.572
 2566SOL    HW2 8031   0.583   3.829   7.472
 2567SOL     OW 8032   0.539   3.788   7.960
 2567SOL    HW1 8033   0.458   3.789   8.018
 2567SOL    HW2 8034   0.542   3.871   7.905
 2568SOL     OW 8035   1.434   4.912   7.489
 2568SOL    HW1 8036   1.466   4.836   7.546
 2568SOL    HW2 8037   1.342   4.939   7.519
 2569SOL     OW 8038   0.297   3.759   7.619
 2569SOL    HW1 8039   0.346   3.843   7.598
 2569SOL    HW2 8040   0.359   3.694   7.664
 2570SOL     OW 8041   0.935   3.960   7.928
 2570SOL    HW1 8042   0.887   4.001   7.850
 2570SOL    HW2 8043   1.034   3.958   7.909
 2571SOL     OW 8044   0.459   4.876   8.189
 2571SOL    HW1 8045   0.388   4.849   8.254
 2571SOL    HW2 8046   0.433   4.848   8.096
 2572SOL     OW 8047   1.032   4.273   7.464
 2572SOL    HW1 8048   0.991   4.355   7.425
 2572SOL    HW2 8049   1.096   4.299   7.537
 2573SOL     OW 8050   1.857   4.557   7.825
 2573SOL    HW1 8051   1.899   4.493   7.889
 2573SOL    HW2 8052   1.819   4.506   7.747
 2574SOL     OW 8053   0.488   5.109   7.622
 2574SOL    HW1 8054   0.401   5.094   7.669
 2574SOL    HW2 8055   0.471   5.135   7.527
 2575SOL     OW 8056   1.390   4.299   7.526
 2575SOL    HW1 8057   1.336   4.278   7.607
 2575SOL    HW2 8058   1.481   4.258   7.535
 2576SOL     OW 8059   0.527   3.980   7.776
 2576SOL    HW1 8060   0.554   3.921   7.701
 2576SOL    HW2 8061   0.527   4.075   7.745
 2577SOL     OW 8062   0.705   4.774   7.816
 2577SOL    HW1 8063   0.691   4.781   7.915
 2577SOL    HW2 8064   0.789   4.723   7.798
 2578SOL     OW 8065   0.367   4.824   7.949
 2578SOL    HW1 8066   0.360   4.907   7.893
 2578SOL    HW2 8067   0.371   4.744   7.889
 2579SOL     OW 8068   1.252   5.072   7.836
 2579SOL    HW1 8069   1.302   5.149   7.876
 2579SOL    HW2 8070   1.157   5.074   7.868
 2580SOL     OW 8071   1.582   4.363   7.920
 2580SOL    HW1 8072   1.551   4.424   7.993
 2580SOL    HW2 8073   1.632   4.415   7.851
 2581SOL     OW 8074   1.209   4.249   7.723
 2581SOL    HW1 8075   1.222   4.165   7.777
 2581SOL    HW2 8076   1.180   4.323   7.783
 2582SOL     OW 8077   1.622   4.091   7.822
 2582SOL    HW1 8078   1.624   4.015   7.886
 2582SOL    HW2 8079   1.574   4.168   7.862
 2583SOL     OW 8080   1.540   3.998   7.573
 2583SOL    HW1 8081   1.479   3.923   7.596
 2583SOL    HW2 8082   1.562   4.050   7.656
 2584SOL     OW 8083   1.303   4.562   7.490
 2584SOL    HW1 8084   1.337   4.469   7.505
 2584SOL    HW2 8085   1.321   4.589   7.395
 2585SOL     OW 8086   0.008   5.050   7.648
 2585SOL    HW1 8087  -0.085   5.071   7.617
 2585SOL    HW2 8088   0.018   4.951   7.661
 2586SOL     OW 8089   0.815   4.296   7.773
 2586SOL    HW1 8090   0.822   4.207   7.727
 2586SOL    HW2 8091   0.721   4.330   7.765
 2587SOL     OW 8092   0.473   4.224   7.639
 2587SOL    HW1 8093   0.534   4.304   7.643
 2587SOL    HW2 8094   0.378   4.255   7.646
 2588SOL     OW 8095   1.302   4.579   7.757
 2588SOL    HW1 8096   1.216   4.548   7.799
 2588SOL    HW2 8097   1.298   4.565   7.658
 2589SOL     OW 8098   1.726   3.859   7.971
 2589SOL    HW1 8099   1.799   3.842   7.904
 2589SOL    HW2 8100   1.695   3.772   8.009
 2590SOL     OW 8101   0.916   4.634   7.739
 2590SOL    HW1 8102   0.979   4.672   7.671
 2590SOL    HW2 8103   0.956   4.551   7.778
 2591SOL     OW 8104   0.255   5.072   7.738
 2591SOL    HW1 8105   0.159   5.073   7.711
 2591SOL    HW2 8106   0.267   5.125   7.822
 2592SOL     OW 8107   0.075   4.069   7.481
 2592SOL    HW1 8108  -0.017   4.041   7.452
 2592SOL    HW2 8109   0.106   4.146   7.425
 2593SOL     OW 8110   0.072   3.890   7.766
 2593SOL    HW1 8111   0.055   3.973   7.712
 2593SOL    HW2 8112   0.162   3.853   7.744
 2594SOL     OW 8113   1.183   5.059   7.567
 2594SOL    HW1 8114   1.084   5.048   7.569
 2594SOL    HW2 8115   1.217   5.074   7.660
 2595SOL     OW 8116   1.225   4.049   7.897
 2595SOL    HW1 8117   1.290   3.975   7.886
 2595SOL    HW2 8118   1.245   4.099   7.981
 2596SOL     OW 8119   0.594   4.469   8.100
 2596SOL    HW1 8120   0.644   4.554   8.081
 2596SOL    HW2 8121   0.506   4.471   8.052
 2597SOL     OW 8122   0.859   5.098   7.464
 2597SOL    HW1 8123   0.813   5.113   7.552
 2597SOL    HW2 8124   0.903   5.183   7.434
 2598SOL     OW 8125   1.083   4.708   7.535
 2598SOL    HW1 8126   1.060   4.761   7.453
 2598SOL    HW2 8127   1.164   4.652   7.516
 2599SOL     OW 8128   0.428   4.148   7.968
 2599SOL    HW1 8129   0.458   4.076   7.906
 2599SOL    HW2 8130   0.389   4.108   8.051
 2600SOL     OW 8131   0.770   5.054   7.749
 2600SOL    HW1 8132   0.724   4.967   7.766
 2600SOL    HW2 8133   0.861   5.051   7.790
 2601SOL     OW 8134   1.352   3.776   7.616
 2601SOL    HW1 8135   1.387   3.735   7.532
 2601SOL    HW2 8136   1.262   3.738   7.636
 2602SOL     OW 8137   0.039   4.801   7.748
 2602SOL    HW1 8138   0.138   4.790   7.739
 2602SOL    HW2 8139  -0.001   4.715   7.780
 2603SOL     OW 8140   2.092   0.628   0.113
 2603SOL    HW1 8141   1.999   0.626   0.150
 2603SOL    HW2 8142   2.093   0.589   0.021
 2604SOL     OW 8143   2.087   0.275   0.996
 2604SOL    HW1 8144   2.122   0.258   1.088
 2604SOL    HW2 8145   1.999   0.230   0.984
 2605SOL     OW 8146   1.881   0.368   0.647
 2605SOL    HW1 8147   1.799   0.411   0.686
 2605SOL    HW2 8148   1.853   0.295   0.584
 2606SOL     OW 8149   2.431   1.275   1.165
 2606SOL    HW1 8150   2.338   1.268   1.128
 2606SOL    HW2 8151   2.442   1.364   1.209
 2607SOL     OW 8152   3.417   1.511   0.703
 2607SOL    HW1 8153   3.360   1.495   0.784
 2607SOL    HW2 8154   3.358   1.521   0.623
 2608SOL     OW 8155   2.997   0.703   0.717
 2608SOL    HW1 8156   3.054   0.781   0.692
 2608SOL    HW2 8157   2.937   0.729   0.793
 2609SOL     OW 8158   3.617   0.607   0.231
 2609SOL    HW1 8159   3.605   0.594   0.132
 2609SOL    HW2 8160   3.587   0.526   0.280
 2610SOL     OW 8161   2.630   1.144   1.023
 2610SOL    HW1 8162   2.552   1.161   1.083
 2610SOL    HW2 8163   2.664   1.231   0.987
 2611SOL     OW 8164   2.712   0.798   1.823
 2611SOL    HW1 8165   2.708   0.874   1.888
 2611SOL    HW2 8166   2.734   0.834   1.732
 2612SOL     OW 8167   2.547   1.012   0.665
 2612SOL    HW1 8168   2.616   0.996   0.735
 2612SOL    HW2 8169   2.474   1.069   0.703
 2613SOL     OW 8170   2.548   1.161   1.803
 2613SOL    HW1 8171   2.608   1.240   1.817
 2613SOL    HW2 8172   2.462   1.192   1.762
 2614SOL     OW 8173   2.197   1.435   1.061
 2614SOL    HW1 8174   2.119   1.404   1.008
 2614SOL    HW2 8175   2.255   1.493   1.004
 2615SOL     OW 8176   3.322   1.505   1.339
 2615SOL    HW1 8177   3.346   1.599   1.365
 2615SOL    HW2 8178   3.306   1.451   1.421
 2616SOL     OW 8179   2.300   0.392   1.499
 2616SOL    HW1 8180   2.382   0.336   1.508
 2616SOL    HW2 8181   2.219   0.334   1.503
 2617SOL     OW 8182   3.465   0.447   0.737
 2617SOL    HW1 8183   3.391   0.493   0.687
 2617SOL    HW2 8184   3.516   0.515   0.790
 2618SOL     OW 8185   2.093   1.713   0.483
 2618SOL    HW1 8186   2.127   1.790   0.537
 2618SOL    HW2 8187   2.137   1.713   0.393
 2619SOL     OW 8188   2.989   1.341   1.690
 2619SOL    HW1 8189   3.036   1.341   1.778
 2619SOL    HW2 8190   2.941   1.254   1.679
 2620SOL     OW 8191   2.092   1.434   0.538
 2620SOL    HW1 8192   2.066   1.530   0.538
 2620SOL    HW2 8193   2.021   1.380   0.583
 2621SOL     OW 8194   2.102   1.091   0.886
 2621SOL    HW1 8195   2.116   1.007   0.938
 2621SOL    HW2 8196   2.047   1.155   0.941
 2622SOL     OW 8197   2.482   1.786   1.439
 2622SOL    HW1 8198   2.390   1.769   1.474
 2622SOL    HW2 8199   2.510   1.878   1.465
 2623SOL     OW 8200   2.468   0.964   0.123
 2623SOL    HW1 8201   2.475   1.048   0.069
 2623SOL    HW2 8202   2.514   0.977   0.211
 2624SOL     OW 8203   3.456   0.114   1.480
 2624SOL    HW1 8204   3.438   0.181   1.408
 2624SOL    HW2 8205   3.453   0.160   1.569
 2625SOL     OW 8206   1.984   0.643   0.563
 2625SOL    HW1 8207   1.939   0.555   0.580
 2625SOL    HW2 8208   1.983   0.697   0.647
 2626SOL     OW 8209   3.704   1.767   0.359
 2626SOL    HW1 8210   3.758   1.738   0.439
 2626SOL    HW2 8211   3.734   1.857   0.330
 2627SOL     OW 8212   1.889   1.596   0.117
 2627SOL    HW1 8213   1.870   1.500   0.138
 2627SOL    HW2 8214   1.856   1.654   0.192
 2628SOL     OW 8215   3.551   0.922   0.612
 2628SOL    HW1 8216   3.646   0.893   0.620
 2628SOL    HW2 8217   3.543   0.987   0.537
 2629SOL     OW 8218   3.503   1.108   0.432
 2629SOL    HW1 8219   3.589   1.110   0.380
 2629SOL    HW2 8220   3.517   1.155   0.520
 2630SOL     OW 8221   1.975   0.737   1.597
 2630SOL    HW1 8222   2.063   0.724   1.642
 2630SOL    HW2 8223   1.962   0.834   1.575
 2631SOL     OW 8224   2.475   1.365   0.726
 2631SOL    HW1 8225   2.426   1.278   0.735
 2631SOL    HW2 8226   2.452   1.408   0.639
 2632SOL     OW 8227   3.155   1.228   1.423
 2632SOL    HW1 8228   3.192   1.155   1.365
 2632SOL    HW2 8229   3.207   1.233   1.508
 2633SOL     OW 8230   2.671   0.004   0.502
 2633SOL    HW1 8231   2.711   0.095   0.493
 2633SOL    HW2 8232   2.571   0.012   0.508
 2634SOL     OW 8233   2.059   0.976   1.264
 2634SOL    HW1 8234   2.148   0.931   1.250
 2634SOL    HW2 8235   1.986   0.911   1.245
 2635SOL     OW 8236   3.387   0.999   0.190
 2635SOL    HW1 8237   3.324   0.923   0.203
 2635SOL    HW2 8238   3.435   1.017   0.276
 2636SOL     OW 8239   3.049   1.792   1.616
 2636SOL    HW1 8240   3.073   1.852   1.540
 2636SOL    HW2 8241   3.056   1.697   1.586
 2637SOL     OW 8242   2.179   0.251   1.801
 2637SOL    HW1 8243   2.250   0.322   1.807
 2637SOL    HW2 8244   2.091   0.290   1.829
 2638SOL     OW 8245   3.328   1.417   0.953
 2638SOL    HW1 8246   3.269   1.423   1.033
 2638SOL    HW2 8247   3.313   1.329   0.907
 2639SOL     OW 8248   3.529   1.714   0.572
 2639SOL    HW1 8249   3.488   1.691   0.484
 2639SOL    HW2 8250   3.511   1.640   0.637
 2640SOL     OW 8251   2.460   0.729   0.270
 2640SOL    HW1 8252   2.484   0.798   0.202
 2640SOL    HW2 8253   2.382   0.762   0.324
 2641SOL     OW 8254   3.143   0.345   0.944
 2641SOL    HW1 8255   3.057   0.295   0.931
 2641SOL    HW2 8256   3.205   0.291   1.000
 2642SOL     OW 8257   3.438   1.662   0.307
 2642SOL    HW1 8258   3.527   1.708   0.310
 2642SOL    HW2 8259   3.417   1.638   0.212
 2643SOL     OW 8260   2.669   0.605   1.465
 2643SOL    HW1 8261   2.622   0.602   1.554
 2643SOL    HW2 8262   2.618   0.550   1.399
 2644SOL     OW 8263   3.256   0.469   1.674
 2644SOL    HW1 8264   3.236   0.512   1.762
 2644SOL    HW2 8265   3.334   0.407   1.683
 2645SOL     OW 8266   2.835   0.890   1.572
 2645SOL    HW1 8267   2.881   0.806   1.543
 2645SOL    HW2 8268   2.779   0.924   1.497
 2646SOL     OW 8269   2.853   0.410   1.242
 2646SOL    HW1 8270   2.776   0.444   1.296
 2646SOL    HW2 8271   2.819   0.359   1.163
 2647SOL     OW 8272   2.903   0.701   0.429
 2647SOL    HW1 8273   2.929   0.697   0.525
 2647SOL    HW2 8274   2.818   0.650   0.415
 2648SOL     OW 8275   1.938   0.811   0.789
 2648SOL    HW1 8276   2.037   0.799   0.798
 2648SOL    HW2 8277   1.914   0.906   0.810
 2649SOL     OW 8278   1.992   1.821   1.571
 2649SOL    HW1 8279   1.982   1.806   1.670
 2649SOL    HW2 8280   1.906   1.857   1.535
 2650SOL     OW 8281   2.727   0.348   0.195
 2650SOL    HW1 8282   2.786   0.411   0.146
 2650SOL    HW2 8283   2.746   0.254   0.166
 2651SOL     OW 8284   3.581   0.585   1.831
 2651SOL    HW1 8285   3.555   0.674   1.795
 2651SOL    HW2 8286   3.579   0.517   1.758
 2652SOL     OW 8287   3.224   1.144   0.545
 2652SOL    HW1 8288   3.307   1.115   0.497
 2652SOL    HW2 8289   3.175   1.211   0.489
 2653SOL     OW 8290   2.412   0.196   0.885
 2653SOL    HW1 8291   2.407   0.191   0.985
 2653SOL    HW2 8292   2.414   0.292   0.856
 2654SOL     OW 8293   2.870   1.456   0.477
 2654SOL    HW1 8294   2.824   1.528   0.425
 2654SOL    HW2 8295   2.866   1.476   0.575
 2655SOL     OW 8296   2.213   1.801   0.853
 2655SOL    HW1 8297   2.263   1.715   0.859
 2655SOL    HW2 8298   2.278   1.878   0.850
 2656SOL     OW 8299   3.657   1.066   0.873
 2656SOL    HW1 8300   3.595   1.051   0.797
 2656SOL    HW2 8301   3.605   1.077   0.958
 2657SOL     OW 8302   3.089   1.550   1.506
 2657SOL    HW1 8303   3.095   1.473   1.570
 2657SOL    HW2 8304   3.037   1.524   1.426
 2658SOL     OW 8305   2.183   0.943   0.242
 2658SOL    HW1 8306   2.265   0.982   0.200
 2658SOL    HW2 8307   2.156   0.861   0.193
 2659SOL     OW 8308   3.320   0.735   0.728
 2659SOL    HW1 8309   3.315   0.670   0.803
 2659SOL    HW2 8310   3.400   0.794   0.741
 2660SOL     OW 8311   2.323   1.266   1.727
 2660SOL    HW1 8312   2.273   1.267   1.641
 2660SOL    HW2 8313   2.260   1.248   1.803
 2661SOL     OW 8314   2.973   1.776   0.237
 2661SOL    HW1 8315   2.913   1.714   0.287
 2661SOL    HW2 8316   3.004   1.732   0.152
 2662SOL     OW 8317   2.064   0.285   1.498
 2662SOL    HW1 8318   1.984   0.345   1.485
 2662SOL    HW2 8319   2.054   0.236   1.584
 2663SOL     OW 8320   3.494   1.377   0.081
 2663SOL    HW1 8321   3.462   1.471   0.071
 2663SOL    HW2 8322   3.418   1.314   0.069
 2664SOL     OW 8323   2.326   1.743   0.323
 2664SOL    HW1 8324   2.359   1.782   0.409
 2664SOL    HW2 8325   2.402   1.736   0.258
 2665SOL     OW 8326   3.262   0.107   0.426
 2665SOL    HW1 8327   3.238   0.070   0.336
 2665SOL    HW2 8328   3.361   0.123   0.430
 2666SOL     OW 8329   2.111   1.785   1.241
 2666SOL    HW1 8330   2.168   1.720   1.291
 2666SOL    HW2 8331   2.095   1.752   1.148
 2667SOL     OW 8332   2.802   1.698   0.904
 2667SOL    HW1 8333   2.882   1.641   0.925
 2667SOL    HW2 8334   2.753   1.658   0.827
 2668SOL     OW 8335   2.244   0.700   0.480
 2668SOL    HW1 8336   2.289   0.610   0.477
 2668SOL    HW2 8337   2.150   0.689   0.513
 2669SOL     OW 8338   3.409   0.222   1.729
 2669SOL    HW1 8339   3.404   0.259   1.821
 2669SOL    HW2 8340   3.337   0.153   1.717
 2670SOL     OW 8341   2.476   0.122   0.117
 2670SOL    HW1 8342   2.574   0.100   0.124
 2670SOL    HW2 8343   2.445   0.105   0.024
 2671SOL     OW 8344   2.643   0.264   1.749
 2671SOL    HW1 8345   2.710   0.203   1.792
 2671SOL    HW2 8346   2.570   0.283   1.814
 2672SOL     OW 8347   2.750   1.514   1.195
 2672SOL    HW1 8348   2.727   1.489   1.101
 2672SOL    HW2 8349   2.811   1.445   1.234
 2673SOL     OW 8350   3.213   0.590   1.433
 2673SOL    HW1 8351   3.241   0.547   1.518
 2673SOL    HW2 8352   3.238   0.686   1.434
 2674SOL     OW 8353   2.665   1.402   0.924
 2674SOL    HW1 8354   2.755   1.416   0.882
 2674SOL    HW2 8355   2.594   1.404   0.853
 2675SOL     OW 8356   2.784   0.503   0.899
 2675SOL    HW1 8357   2.759   0.494   0.803
 2675SOL    HW2 8358   2.832   0.421   0.930
 2676SOL     OW 8359   2.401   0.064   0.512
 2676SOL    HW1 8360   2.320   0.065   0.570
 2676SOL    HW2 8361   2.404   0.147   0.457
 2677SOL     OW 8362   3.296   1.188   0.041
 2677SOL    HW1 8363   3.328   1.112   0.098
 2677SOL    HW2 8364   3.204   1.215   0.071
 2678SOL     OW 8365   2.159   0.035   0.171
 2678SOL    HW1 8366   2.208   0.119   0.150
 2678SOL    HW2 8367   2.221  -0.030   0.216
 2679SOL     OW 8368   2.797   0.236   0.480
 2679SOL    HW1 8369   2.749   0.277   0.402
 2679SOL    HW2 8370   2.896   0.234   0.461
 2680SOL     OW 8371   2.938   0.683   1.464
 2680SOL    HW1 8372   2.858   0.622   1.467
 2680SOL    HW2 8373   3.019   0.630   1.440
 2681SOL     OW 8374   3.089   1.570   0.793
 2681SOL    HW1 8375   3.110   1.644   0.728
 2681SOL    HW2 8376   3.157   1.570   0.866
 2682SOL     OW 8377   2.321   1.152   0.741
 2682SOL    HW1 8378   2.250   1.125   0.806
 2682SOL    HW2 8379   2.295   1.124   0.648
 2683SOL     OW 8380   3.133   1.797   0.591
 2683SOL    HW1 8381   3.177   1.861   0.527
 2683SOL    HW2 8382   3.083   1.849   0.661
 2684SOL     OW 8383   2.894   0.549   0.016
 2684SOL    HW1 8384   2.853   0.631  -0.023
 2684SOL    HW2 8385   2.958   0.575   0.089
 2685SOL     OW 8386   1.940   0.556   1.386
 2685SOL    HW1 8387   2.032   0.555   1.345
 2685SOL    HW2 8388   1.934   0.630   1.453
 2686SOL     OW 8389   2.423   0.222   1.147
 2686SOL    HW1 8390   2.461   0.138   1.184
 2686SOL    HW2 8391   2.335   0.241   1.191
 2687SOL     OW 8392   2.728   0.454   0.642
 2687SOL    HW1 8393   2.696   0.526   0.580
 2687SOL    HW2 8394   2.752   0.373   0.589
 2688SOL     OW 8395   2.879   0.039   0.753
 2688SOL    HW1 8396   2.807   0.044   0.684
 2688SOL    HW2 8397   2.855  -0.030   0.822
 2689SOL     OW 8398   3.291   1.173   0.867
 2689SOL    HW1 8399   3.236   1.089   0.860
 2689SOL    HW2 8400   3.317   1.202   0.775
 2690SOL     OW 8401   3.328   0.590   0.992
 2690SOL    HW1 8402   3.298   0.495   0.999
 2690SOL    HW2 8403   3.401   0.606   1.058
 2691SOL     OW 8404   3.719   0.833   0.377
 2691SOL    HW1 8405   3.761   0.769   0.441
 2691SOL    HW2 8406   3.681   0.782   0.299
 2692SOL     OW 8407   2.350   1.385   0.174
 2692SOL    HW1 8408   2.263   1.370   0.221
 2692SOL    HW2 8409   2.333   1.411   0.079
 2693SOL     OW 8410   3.526   1.280   0.657
 2693SOL    HW1 8411   3.625   1.288   0.671
 2693SOL    HW2 8412   3.481   1.364   0.688
 2694SOL     OW 8413   3.252   0.575   0.078
 2694SOL    HW1 8414   3.198   0.554   0.159
 2694SOL    HW2 8415   3.343   0.534   0.087
 2695SOL     OW 8416   2.389   0.256   0.328
 2695SOL    HW1 8417   2.416   0.197   0.253
 2695SOL    HW2 8418   2.389   0.351   0.297
 2696SOL     OW 8419   3.616   1.223   1.588
 2696SOL    HW1 8420   3.707   1.184   1.575
 2696SOL    HW2 8421   3.624   1.319   1.612
 2697SOL     OW 8422   2.926   1.347   1.340
 2697SOL    HW1 8423   2.846   1.324   1.395
 2697SOL    HW2 8424   3.009   1.321   1.389
 2698SOL     OW 8425   3.454   1.629   1.625
 2698SOL    HW1 8426   3.481   1.663   1.535
 2698SOL    HW2 8427   3.533   1.591   1.671
 2699SOL     OW 8428   2.973   1.195   1.100
 2699SOL    HW1 8429   2.933   1.239   1.181
 2699SOL    HW2 8430   2.932   1.232   1.017
 2700SOL     OW 8431   3.500   1.099   1.079
 2700SOL    HW1 8432   3.505   1.180   1.138
 2700SOL    HW2 8433   3.414   1.101   1.028
 2701SOL     OW 8434   2.777   0.089   1.402
 2701SOL    HW1 8435   2.802   0.069   1.307
 2701SOL    HW2 8436   2.849   0.145   1.444
 2702SOL     OW 8437   2.842   1.116   1.719
 2702SOL    HW1 8438   2.743   1.122   1.729
 2702SOL    HW2 8439   2.865   1.036   1.663
 2703SOL     OW 8440   2.567   1.050   0.368
 2703SOL    HW1 8441   2.553   1.057   0.467
 2703SOL    HW2 8442   2.651   0.999   0.350
 2704SOL     OW 8443   2.272   0.813   1.251
 2704SOL    HW1 8444   2.358   0.825   1.301
 2704SOL    HW2 8445   2.230   0.726   1.278
 2705SOL     OW 8446   3.136   0.386   1.262
 2705SOL    HW1 8447   3.157   0.460   1.326
 2705SOL    HW2 8448   3.047   0.403   1.219
 2706SOL     OW 8449   1.926   1.564   1.331
 2706SOL    HW1 8450   1.880   1.646   1.297
 2706SOL    HW2 8451   2.024   1.583   1.340
 2707SOL     OW 8452   2.229   1.100   0.501
 2707SOL    HW1 8453   2.222   1.183   0.445
 2707SOL    HW2 8454   2.233   1.020   0.441
 2708SOL     OW 8455   2.428   0.537   0.865
 2708SOL    HW1 8456   2.440   0.603   0.791
 2708SOL    HW2 8457   2.474   0.571   0.948
 2709SOL     OW 8458   3.114   1.348   0.388
 2709SOL    HW1 8459   3.164   1.425   0.428
 2709SOL    HW2 8460   3.019   1.350   0.420
 2710SOL     OW 8461   3.134   1.445   1.142
 2710SOL    HW1 8462   3.181   1.458   1.229
 2710SOL    HW2 8463   3.068   1.371   1.151
 2711SOL     OW 8464   3.444   0.639   0.472
 2711SOL    HW1 8465   3.413   0.700   0.545
 2711SOL    HW2 8466   3.494   0.691   0.403
 2712SOL     OW 8467   2.216   1.510   1.329
 2712SOL    HW1 8468   2.195   1.466   1.242
 2712SOL    HW2 8469   2.313   1.536   1.332
 2713SOL     OW 8470   2.264   0.751   1.598
 2713SOL    HW1 8471   2.332   0.806   1.551
 2713SOL    HW2 8472   2.304   0.663   1.625
 2714SOL     OW 8473   3.449   0.779   1.670
 2714SOL    HW1 8474   3.357   0.817   1.665
 2714SOL    HW2 8475   3.509   0.826   1.605
 2715SOL     OW 8476   2.875   0.105   1.770
 2715SOL    HW1 8477   2.881   0.190   1.718
 2715SOL    HW2 8478   2.907   0.029   1.713
 2716SOL     OW 8479   2.366   0.050   1.740
 2716SOL    HW1 8480   2.324  -0.007   1.670
 2716SOL    HW2 8481   2.300   0.119   1.772
 2717SOL     OW 8482   2.435   0.870   1.029
 2717SOL    HW1 8483   2.479   0.959   1.020
 2717SOL    HW2 8484   2.372   0.870   1.106
 2718SOL     OW 8485   3.222   0.862   1.045
 2718SOL    HW1 8486   3.147   0.862   0.979
 2718SOL    HW2 8487   3.259   0.770   1.054
 2719SOL     OW 8488   3.071   0.525   0.275
 2719SOL    HW1 8489   3.084   0.441   0.329
 2719SOL    HW2 8490   3.042   0.599   0.335
 2720SOL     OW 8491   2.169   0.213   1.231
 2720SOL    HW1 8492   2.146   0.250   1.321
 2720SOL    HW2 8493   2.139   0.118   1.225
 2721SOL     OW 8494   1.899   1.310   1.282
 2721SOL    HW1 8495   1.952   1.261   1.350
 2721SOL    HW2 8496   1.921   1.408   1.287
 2722SOL     OW 8497   2.594   0.634   1.064
 2722SOL    HW1 8498   2.653   0.608   0.988
 2722SOL    HW2 8499   2.566   0.730   1.053
 2723SOL     OW 8500   3.590   0.935   1.854
 2723SOL    HW1 8501   3.544   0.928   1.765
 2723SOL    HW2 8502   3.528   0.979   1.920
 2724SOL     OW 8503   2.169   0.063   0.618
 2724SOL    HW1 8504   2.158   0.157   0.651
 2724SOL    HW2 8505   2.164   0.000   0.695
 2725SOL     OW 8506   3.484   0.367   0.374
 2725SOL    HW1 8507   3.486   0.291   0.438
 2725SOL    HW2 8508   3.436   0.444   0.414
 2726SOL     OW 8509   2.885   0.766   0.966
 2726SOL    HW1 8510   2.900   0.787   1.062
 2726SOL    HW2 8511   2.855   0.671   0.957
 2727SOL     OW 8512   2.842   1.573   1.700
 2727SOL    HW1 8513   2.822   1.617   1.612
 2727SOL    HW2 8514   2.881   1.482   1.684
 2728SOL     OW 8515   3.721   1.518   1.605
 2728SOL    HW1 8516   3.735   1.545   1.510
 2728SOL    HW2 8517   3.804   1.540   1.658
 2729SOL     OW 8518   2.212   0.898   1.804
 2729SOL    HW1 8519   2.288   0.942   1.852
 2729SOL    HW2 8520   2.247   0.851   1.722
 2730SOL     OW 8521   3.402   0.274   0.125
 2730SOL    HW1 8522   3.341   0.199   0.148
 2730SOL    HW2 8523   3.424   0.326   0.208
 2731SOL     OW 8524   3.165   0.838   0.042
 2731SOL    HW1 8525   3.199   0.745   0.057
 2731SOL    HW2 8526   3.183   0.865  -0.053
 2732SOL     OW 8527   2.930   1.333   0.849
 2732SOL    HW1 8528   2.937   1.249   0.794
 2732SOL    HW2 8529   2.992   1.402   0.813
 2733SOL     OW 8530   2.181   0.810   0.949
 2733SOL    HW1 8531   2.274   0.846   0.954
 2733SOL    HW2 8532   2.175   0.725   1.001
 2734SOL     OW 8533   2.201   0.509   1.006
 2734SOL    HW1 8534   2.149   0.426   0.989
 2734SOL    HW2 8535   2.278   0.514   0.942
 2735SOL     OW 8536   3.000   0.380   1.678
 2735SOL    HW1 8537   2.955   0.443   1.742
 2735SOL    HW2 8538   3.093   0.411   1.661
 2736SOL     OW 8539   3.022   0.207   1.477
 2736SOL    HW1 8540   3.022   0.271   1.554
 2736SOL    HW2 8541   3.050   0.255   1.394
 2737SOL     OW 8542   1.870   1.326   0.200
 2737SOL    HW1 8543   1.777   1.347   0.169
 2737SOL    HW2 8544   1.880   1.227   0.213
 2738SOL     OW 8545   1.950   1.801   0.927
 2738SOL    HW1 8546   1.908   1.715   0.900
 2738SOL    HW2 8547   2.044   1.804   0.893
 2739SOL     OW 8548   2.366   1.568   0.910
 2739SOL    HW1 8549   2.432   1.642   0.919
 2739SOL    HW2 8550   2.410   1.489   0.868
 2740SOL     OW 8551   2.864   0.796   1.238
 2740SOL    HW1 8552   2.905   0.764   1.324
 2740SOL    HW2 8553   2.768   0.769   1.235
 2741SOL     OW 8554   1.902   0.544   1.114
 2741SOL    HW1 8555   1.987   0.511   1.073
 2741SOL    HW2 8556   1.915   0.559   1.212
 2742SOL     OW 8557   2.051   0.520   1.722
 2742SOL    HW1 8558   2.110   0.480   1.652
 2742SOL    HW2 8559   1.993   0.591   1.681
 2743SOL     OW 8560   3.231   0.950   1.660
 2743SOL    HW1 8561   3.270   1.039   1.680
 2743SOL    HW2 8562   3.241   0.930   1.563
 2744SOL     OW 8563   2.677   0.572   0.325
 2744SOL    HW1 8564   2.684   0.483   0.279
 2744SOL    HW2 8565   2.583   0.606   0.317
 2745SOL     OW 8566   3.519   0.604   1.206
 2745SOL    HW1 8567   3.481   0.535   1.268
 2745SOL    HW2 8568   3.601   0.568   1.162
 2746SOL     OW 8569   2.114   1.564   1.744
 2746SOL    HW1 8570   2.084   1.621   1.820
 2746SOL    HW2 8571   2.107   1.467   1.770
 2747SOL     OW 8572   2.533   0.464   1.269
 2747SOL    HW1 8573   2.499   0.375   1.239
 2747SOL    HW2 8574   2.559   0.518   1.189
 2748SOL     OW 8575   2.792   1.678   1.465
 2748SOL    HW1 8576   2.768   1.660   1.370
 2748SOL    HW2 8577   2.822   1.772   1.475
 2749SOL     OW 8578   2.335   0.500   0.191
 2749SOL    HW1 8579   2.396   0.580   0.195
 2749SOL    HW2 8580   2.240   0.531   0.198
 2750SOL     OW 8581   2.021   1.137   1.466
 2750SOL    HW1 8582   2.043   1.076   1.542
 2750SOL    HW2 8583   2.031   1.088   1.380
 2751SOL     OW 8584   3.209   1.059   1.234
 2751SOL    HW1 8585   3.233   0.996   1.160
 2751SOL    HW2 8586   3.119   1.099   1.216
 2752SOL     OW 8587   3.164   0.855   0.309
 2752SOL    HW1 8588   3.078   0.824   0.351
 2752SOL    HW2 8589   3.160   0.841   0.210
 2753SOL     OW 8590   3.621   1.747   1.154
 2753SOL    HW1 8591   3.682   1.777   1.081
 2753SOL    HW2 8592   3.583   1.658   1.132
 2754SOL     OW 8593   3.114   1.731   1.128
 2754SOL    HW1 8594   3.198   1.736   1.074
 2754SOL    HW2 8595   3.091   1.635   1.146
 2755SOL     OW 8596   1.945   1.258   1.022
 2755SOL    HW1 8597   1.940   1.257   1.122
 2755SOL    HW2 8598   1.862   1.217   0.984
 2756SOL     OW 8599   2.550   1.662   1.716
 2756SOL    HW1 8600   2.494   1.743   1.725
 2756SOL    HW2 8601   2.602   1.666   1.630
 2757SOL     OW 8602   2.765   0.086   0.133
 2757SOL    HW1 8603   2.816   0.087   0.047
 2757SOL    HW2 8604   2.821   0.044   0.204
 2758SOL     OW 8605   3.588   0.135   0.523
 2758SOL    HW1 8606   3.661   0.118   0.456
 2758SOL    HW2 8607   3.557   0.048   0.561
 2759SOL     OW 8608   3.250   1.573   0.477
 2759SOL    HW1 8609   3.317   1.585   0.403
 2759SOL    HW2 8610   3.210   1.662   0.500
 2760SOL     OW 8611   1.992   1.794   1.851
 2760SOL    HW1 8612   1.951   1.720   1.904
 2760SOL    HW2 8613   2.056   1.845   1.909
 2761SOL     OW 8614   3.142   0.927   0.672
 2761SOL    HW1 8615   3.202   0.846   0.674
 2761SOL    HW2 8616   3.182   0.996   0.612
 2762SOL     OW 8617   2.692   1.273   1.422
 2762SOL    HW1 8618   2.687   1.306   1.517
 2762SOL    HW2 8619   2.606   1.292   1.376
 2763SOL     OW 8620   2.534   1.616   0.154
 2763SOL    HW1 8621   2.543   1.626   0.055
 2763SOL    HW2 8622   2.494   1.527   0.175
 2764SOL     OW 8623   3.512   1.720   1.394
 2764SOL    HW1 8624   3.565   1.730   1.310
 2764SOL    HW2 8625   3.485   1.810   1.428
 2765SOL     OW 8626   3.703   0.175   0.963
 2765SOL    HW1 8627   3.742   0.090   0.927
 2765SOL    HW2 8628   3.605   0.177   0.944
 2766SOL     OW 8629   2.125   0.326   0.720
 2766SOL    HW1 8630   2.046   0.377   0.686
 2766SOL    HW2 8631   2.116   0.311   0.818
 2767SOL     OW 8632   3.056   1.612   0.031
 2767SOL    HW1 8633   3.062   1.519   0.068
 2767SOL    HW2 8634   2.997   1.612  -0.049
 2768SOL     OW 8635   2.684   1.002   1.372
 2768SOL    HW1 8636   2.724   1.001   1.280
 2768SOL    HW2 8637   2.694   1.094   1.412
 2769SOL     OW 8638   2.778   0.910   0.291
 2769SOL    HW1 8639   2.841   0.948   0.223
 2769SOL    HW2 8640   2.818   0.827   0.330
 2770SOL     OW 8641   3.366   1.607   0.044
 2770SOL    HW1 8642   3.274   1.644   0.051
 2770SOL    HW2 8643   3.404   1.627  -0.046
 2771SOL     OW 8644   2.234   1.288   1.490
 2771SOL    HW1 8645   2.221   1.381   1.456
 2771SOL    HW2 8646   2.150   1.236   1.477
 2772SOL     OW 8647   3.476   1.292   1.289
 2772SOL    HW1 8648   3.536   1.295   1.369
 2772SOL    HW2 8649   3.401   1.356   1.302
 2773SOL     OW 8650   2.901   1.098   0.696
 2773SOL    HW1 8651   2.831   1.051   0.750
 2773SOL    HW2 8652   2.960   1.030   0.653
 2774SOL     OW 8653   2.876   0.236   0.971
 2774SOL    HW1 8654   2.868   0.200   0.878
 2774SOL    HW2 8655   2.874   0.160   1.036
 2775SOL     OW 8656   2.452   1.487   0.491
 2775SOL    HW1 8657   2.494   1.429   0.421
 2775SOL    HW2 8658   2.408   1.566   0.447
 2776SOL     OW 8659   3.571   0.385   1.381
 2776SOL    HW1 8660   3.644   0.454   1.385
 2776SOL    HW2 8661   3.599   0.310   1.322
 2777SOL     OW 8662   2.117   1.348   0.290
 2777SOL    HW1 8663   2.021   1.349   0.263
 2777SOL    HW2 8664   2.129   1.401   0.374
 2778SOL     OW 8665   1.967   1.013   1.726
 2778SOL    HW1 8666   1.890   0.980   1.780
 2778SOL    HW2 8667   2.052   0.983   1.768
 2779SOL     OW 8668   2.534   0.203   1.489
 2779SOL    HW1 8669   2.624   0.187   1.449
 2779SOL    HW2 8670   2.542   0.208   1.588
 2780SOL     OW 8671   1.937   0.345   0.033
 2780SOL    HW1 8672   1.845   0.317   0.004
 2780SOL    HW2 8673   1.968   0.422  -0.023
 2781SOL     OW 8674   3.302   0.856   1.398
 2781SOL    HW1 8675   3.245   0.908   1.335
 2781SOL    HW2 8676   3.398   0.868   1.374
 2782SOL     OW 8677   1.934   0.166   0.318
 2782SOL    HW1 8678   1.917   0.249   0.264
 2782SOL    HW2 8679   2.024   0.129   0.296
 2783SOL     OW 8680   3.045   1.335   0.119
 2783SOL    HW1 8681   2.946   1.324   0.121
 2783SOL    HW2 8682   3.079   1.350   0.212
 2784SOL     OW 8683   2.475   0.842   1.431
 2784SOL    HW1 8684   2.531   0.923   1.414
 2784SOL    HW2 8685   2.534   0.762   1.434
 2785SOL     OW 8686   3.355   1.767   0.959
 2785SOL    HW1 8687   3.388   1.831   0.890
 2785SOL    HW2 8688   3.421   1.761   1.034
 2786SOL     OW 8689   2.578   0.565   1.708
 2786SOL    HW1 8690   2.597   0.630   1.782
 2786SOL    HW2 8691   2.638   0.485   1.717
 2787SOL     OW 8692   3.312   1.220   1.633
 2787SOL    HW1 8693   3.303   1.210   1.732
 2787SOL    HW2 8694   3.408   1.213   1.607
 2788SOL     OW 8695   2.252   1.741   1.560
 2788SOL    HW1 8696   2.161   1.782   1.558
 2788SOL    HW2 8697   2.245   1.647   1.592
 2789SOL     OW 8698   3.536   0.883   1.254
 2789SOL    HW1 8699   3.509   0.794   1.217
 2789SOL    HW2 8700   3.537   0.951   1.181
 2790SOL     OW 8701   3.087   0.325   0.449
 2790SOL    HW1 8702   3.152   0.251   0.438
 2790SOL    HW2 8703   3.107   0.375   0.533
 2791SOL     OW 8704   2.456   0.745   0.652
 2791SOL    HW1 8705   2.506   0.830   0.633
 2791SOL    HW2 8706   2.368   0.747   0.604
 2792SOL     OW 8707   3.639   0.342   1.642
 2792SOL    HW1 8708   3.622   0.373   1.548
 2792SOL    HW2 8709   3.555   0.305   1.680
 2793SOL     OW 8710   3.592   0.934   1.517
 2793SOL    HW1 8711   3.630   1.025   1.532
 2793SOL    HW2 8712   3.584   0.917   1.418
 2794SOL     OW 8713   2.721   1.374   0.016
 2794SOL    HW1 8714   2.675   1.389   0.104
 2794SOL    HW2 8715   2.765   1.459  -0.014
 2795SOL     OW 8716   2.523   1.790   0.953
 2795SOL    HW1 8717   2.477   1.878   0.940
 2795SOL    HW2 8718   2.622   1.802   0.946
 2796SOL     OW 8719   2.721   0.956   0.861
 2796SOL    HW1 8720   2.775   0.887   0.909
 2796SOL    HW2 8721   2.689   1.025   0.927
 2797SOL     OW 8722   2.945   0.984   0.087
 2797SOL    HW1 8723   2.922   1.037   0.005
 2797SOL    HW2 8724   3.026   0.928   0.068
 2798SOL     OW 8725   3.723   1.569   0.851
 2798SOL    HW1 8726   3.652   1.557   0.781
 2798SOL    HW2 8727   3.724   1.490   0.911
 2799SOL     OW 8728   2.083   1.314   1.844
 2799SOL    HW1 8729   2.018   1.241   1.823
 2799SOL    HW2 8730   2.087   1.328   1.942
 2800SOL     OW 8731   1.941   1.240   0.653
 2800SOL    HW1 8732   1.940   1.193   0.741
 2800SOL    HW2 8733   2.023   1.212   0.602
 2801SOL     OW 8734   2.534   1.391   1.624
 2801SOL    HW1 8735   2.456   1.341   1.662
 2801SOL    HW2 8736   2.531   1.486   1.655
 2802SOL     OW 8737   3.686   0.192   1.227
 2802SOL    HW1 8738   3.682   0.102   1.271
 2802SOL    HW2 8739   3.689   0.181   1.128
 2803SOL     OW 8740   2.290   0.424   0.520
 2803SOL    HW1 8741   2.320   0.352   0.458
 2803SOL    HW2 8742   2.251   0.384   0.603
 2804SOL     OW 8743   3.567   1.487   1.104
 2804SOL    HW1 8744   3.474   1.462   1.077
 2804SOL    HW2 8745   3.593   1.437   1.186
 2805SOL     OW 8746   2.179   0.547   1.280
 2805SOL    HW1 8747   2.217   0.488   1.352
 2805SOL    HW2 8748   2.219   0.521   1.192
 2806SOL     OW 8749   2.674   1.586   0.687
 2806SOL    HW1 8750   2.706   1.596   0.593
 2806SOL    HW2 8751   2.595   1.524   0.689
 2807SOL     OW 8752   3.286   0.214   1.112
 2807SOL    HW1 8753   3.338   0.149   1.167
 2807SOL    HW2 8754   3.237   0.277   1.173
 2808SOL     OW 8755   2.863   0.034   1.154
 2808SOL    HW1 8756   2.800  -0.038   1.123
 2808SOL    HW2 8757   2.956  -0.002   1.154
 2809SOL     OW 8758   2.632   1.330   0.301
 2809SOL    HW1 8759   2.586   1.243   0.318
 2809SOL    HW2 8760   2.723   1.327   0.342
 2810SOL     OW 8761   2.480   1.567   1.284
 2810SOL    HW1 8762   2.475   1.649   1.341
 2810SOL    HW2 8763   2.569   1.564   1.239
 2811SOL     OW 8764   3.214   0.052   0.168
 2811SOL    HW1 8765   3.249   0.011   0.084
 2811SOL    HW2 8766   3.124   0.014   0.188
 2812SOL     OW 8767   3.162   0.453   0.691
 2812SOL    HW1 8768   3.103   0.533   0.695
 2812SOL    HW2 8769   3.177   0.418   0.784
 2813SOL     OW 8770   3.455   0.221   0.882
 2813SOL    HW1 8771   3.371   0.220   0.936
 2813SOL    HW2 8772   3.457   0.304   0.826
 2814SOL     OW 8773   1.901   1.077   0.300
 2814SOL    HW1 8774   2.000   1.066   0.291
 2814SOL    HW2 8775   1.861   0.991   0.332
 2815SOL     OW 8776   2.737   1.646   0.337
 2815SOL    HW1 8777   2.660   1.611   0.283
 2815SOL    HW2 8778   2.705   1.717   0.399
 2816SOL     OW 8779   2.092   0.628   1.975
 2816SOL    HW1 8780   1.999   0.626   2.012
 2816SOL    HW2 8781   2.093   0.589   1.883
 2817SOL     OW 8782   2.087   0.275   2.858
 2817SOL    HW1 8783   2.122   0.258   2.950
 2817SOL    HW2 8784   1.999   0.230   2.846
 2818SOL     OW 8785   1.881   0.368   2.509
 2818SOL    HW1 8786   1.799   0.411   2.548
 2818SOL    HW2 8787   1.853   0.295   2.446
 2819SOL     OW 8788   2.431   1.275   3.027
 2819SOL    HW1 8789   2.338   1.268   2.990
 2819SOL    HW2 8790   2.442   1.364   3.071
 2820SOL     OW 8791   3.417   1.511   2.565
 2820SOL    HW1 8792   3.360   1.495   2.646
 2820SOL    HW2 8793   3.358   1.521   2.485
 2821SOL     OW 8794   2.997   0.703   2.579
 2821SOL    HW1 8795   3.054   0.781   2.554
 2821SOL    HW2 8796   2.937   0.729   2.655
 2822SOL     OW 8797   3.617   0.607   2.093
 2822SOL    HW1 8798   3.605   0.594   1.994
 2822SOL    HW2 8799   3.587   0.526   2.142
 2823SOL     OW 8800   2.630   1.144   2.885
 2823SOL    HW1 8801   2.552   1.161   2.945
 2823SOL    HW2 8802   2.664   1.231   2.849
 2824SOL     OW 8803   2.712   0.798   3.685
 2824SOL    HW1 8804   2.708   0.874   3.750
 2824SOL    HW2 8805   2.734   0.834   3.594
 2825SOL     OW 8806   2.547   1.012   2.527
 2825SOL    HW1 8807   2.616   0.996   2.597
 2825SOL    HW2 8808   2.474   1.069   2.565
 2826SOL     OW 8809   2.548   1.161   3.665
 2826SOL    HW1 8810   2.608   1.240   3.679
 2826SOL    HW2 8811   2.462   1.192   3.624
 2827SOL     OW 8812   2.197   1.435   2.923
 2827SOL    HW1 8813   2.119   1.404   2.870
 2827SOL    HW2 8814   2.255   1.493   2.866
 2828SOL     OW 8815   3.322   1.505   3.201
 2828SOL    HW1 8816   3.346   1.599   3.227
 2828SOL    HW2 8817   3.306   1.451   3.283
 2829SOL     OW 8818   2.300   0.392   3.361
 2829SOL    HW1 8819   2.382   0.336   3.370
 2829SOL    HW2 8820   2.219   0.334   3.365
 2830SOL     OW 8821   3.465   0.447   2.599
 2830SOL    HW1 8822   3.391   0.493   2.549
 2830SOL    HW2 8823   3.516   0.515   2.652
 2831SOL     OW 8824   2.093   1.713   2.345
 2831SOL    HW1 8825   2.127   1.790   2.399
 2831SOL    HW2 8826   2.137   1.713   2.255
 2832SOL     OW 8827   2.989   1.341   3.552
 2832SOL    HW1 8828   3.036   1.341   3.640
 2832SOL    HW2 8829   2.941   1.254   3.541
 2833SOL     OW 8830   2.092   1.434   2.400
 2833SOL    HW1 8831   2.066   1.530   2.400
 2833SOL    HW2 8832   2.021   1.380   2.445
 2834SOL     OW 8833   2.102   1.091   2.748
 2834SOL    HW1 8834   2.116   1.007   2.800
 2834SOL    HW2 8835   2.047   1.155   2.803
 2835SOL     OW 8836   2.482   1.786   3.301
 2835SOL    HW1 8837   2.390   1.769   3.336
 2835SOL    HW2 8838   2.510   1.878   3.327
 2836SOL     OW 8839   2.468   0.964   1.985
 2836SOL    HW1 8840   2.475   1.048   1.931
 2836SOL    HW2 8841   2.514   0.977   2.073
 2837SOL     OW 8842   3.456   0.114   3.342
 2837SOL    HW1 8843   3.438   0.181   3.270
 2837SOL    HW2 8844   3.453   0.160   3.431
 2838SOL     OW 8845   1.984   0.643   2.425
 2838SOL    HW1 8846   1.939   0.555   2.442
 2838SOL    HW2 8847   1.983   0.697   2.509
 2839SOL     OW 8848   3.704   1.767   2.221
 2839SOL    HW1 8849   3.758   1.738   2.301
 2839SOL    HW2 8850   3.734   1.857   2.192
 2840SOL     OW 8851   1.889   1.596   1.979
 2840SOL    HW1 8852   1.870   1.500   2.000
 2840SOL    HW2 8853   1.856   1.654   2.054
 2841SOL     OW 8854   3.551   0.922   2.474
 2841SOL    HW1 8855   3.646   0.893   2.482
 2841SOL    HW2 8856   3.543   0.987   2.399
 2842SOL     OW 8857   3.503   1.108   2.294
 2842SOL    HW1 8858   3.589   1.110   2.242
 2842SOL    HW2 8859   3.517   1.155   2.382
 2843SOL     OW 8860   1.975   0.737   3.459
 2843SOL    HW1 8861   2.063   0.724   3.504
 2843SOL    HW2 8862   1.962   0.834   3.437
 2844SOL     OW 8863   2.475   1.365   2.588
 2844SOL    HW1 8864   2.426   1.278   2.597
 2844SOL    HW2 8865   2.452   1.408   2.501
 2845SOL     OW 8866   3.155   1.228   3.285
 2845SOL    HW1 8867   3.192   1.155   3.227
 2845SOL    HW2 8868   3.207   1.233   3.370
 2846SOL     OW 8869   2.671   0.004   2.364
 2846SOL    HW1 8870   2.711   0.095   2.355
 2846SOL    HW2 8871   2.571   0.012   2.370
 2847SOL     OW 8872   2.059   0.976   3.126
 2847SOL    HW1 8873   2.148   0.931   3.112
 2847SOL    HW2 8874   1.986   0.911   3.107
 2848SOL     OW 8875   3.387   0.999   2.052
 2848SOL    HW1 8876   3.324   0.923   2.065
 2848SOL    HW2 8877   3.435   1.017   2.138
 2849SOL     OW 8878   3.049   1.792   3.478
 2849SOL    HW1 8879   3.073   1.852   3.402
 2849SOL    HW2 8880   3.056   1.697   3.448
 2850SOL     OW 8881   2.179   0.251   3.663
 2850SOL    HW1 8882   2.250   0.322   3.669
 2850SOL    HW2 8883   2.091   0.290   3.691
 2851SOL     OW 8884   3.328   1.417   2.815
 2851SOL    HW1 8885   3.269   1.423   2.895
 2851SOL    HW2 8886   3.313   1.329   2.769
 2852SOL     OW 8887   3.529   1.714   2.434
 2852SOL    HW1 8888   3.488   1.691   2.346
 2852SOL    HW2 8889   3.511   1.640   2.499
 2853SOL     OW 8890   2.460   0.729   2.132
 2853SOL    HW1 8891   2.484   0.798   2.064
 2853SOL    HW2 8892   2.382   0.762   2.186
 2854SOL     OW 8893   3.143   0.345   2.806
 2854SOL    HW1 8894   3.057   0.295   2.793
 2854SOL    HW2 8895   3.205   0.291   2.862
 2855SOL     OW 8896   3.438   1.662   2.169
 2855SOL    HW1 8897   3.527   1.708   2.172
 2855SOL    HW2 8898   3.417   1.638   2.074
 2856SOL     OW 8899   2.669   0.605   3.327
 2856SOL    HW1 8900   2.622   0.602   3.416
 2856SOL    HW2 8901   2.618   0.550   3.261
 2857SOL     OW 8902   3.256   0.469   3.536
 2857SOL    HW1 8903   3.236   0.512   3.624
 2857SOL    HW2 8904   3.334   0.407   3.545
 2858SOL     OW 8905   2.835   0.890   3.434
 2858SOL    HW1 8906   2.881   0.806   3.405
 2858SOL    HW2 8907   2.779   0.924   3.359
 2859SOL     OW 8908   2.853   0.410   3.104
 2859SOL    HW1 8909   2.776   0.444   3.158
 2859SOL    HW2 8910   2.819   0.359   3.025
 2860SOL     OW 8911   2.903   0.701   2.291
 2860SOL    HW1 8912   2.929   0.697   2.387
 2860SOL    HW2 8913   2.818   0.650   2.277
 2861SOL     OW 8914   1.938   0.811   2.651
 2861SOL    HW1 8915   2.037   0.799   2.660
 2861SOL    HW2 8916   1.914   0.906   2.672
 2862SOL     OW 8917   1.992   1.821   3.433
 2862SOL    HW1 8918   1.982   1.806   3.532
 2862SOL    HW2 8919   1.906   1.857   3.397
 2863SOL     OW 8920   2.727   0.348   2.057
 2863SOL    HW1 8921   2.786   0.411   2.008
 2863SOL    HW2 8922   2.746   0.254   2.028
 2864SOL     OW 8923   3.581   0.585   3.693
 2864SOL    HW1 8924   3.555   0.674   3.657
 2864SOL    HW2 8925   3.579   0.517   3.620
 2865SOL     OW 8926   3.224   1.144   2.407
 2865SOL    HW1 8927   3.307   1.115   2.359
 2865SOL    HW2 8928   3.175   1.211   2.351
 2866SOL     OW 8929   2.412   0.196   2.747
 2866SOL    HW1 8930   2.407   0.191   2.847
 2866SOL    HW2 8931   2.414   0.292   2.718
 2867SOL     OW 8932   2.870   1.456   2.339
 2867SOL    HW1 8933   2.824   1.528   2.287
 2867SOL    HW2 8934   2.866   1.476   2.437
 2868SOL     OW 8935   2.213   1.801   2.715
 2868SOL    HW1 8936   2.263   1.715   2.721
 2868SOL    HW2 8937   2.278   1.878   2.712
 2869SOL     OW 8938   3.657   1.066   2.735
 2869SOL    HW1 8939   3.595   1.051   2.659
 2869SOL    HW2 8940   3.605   1.077   2.820
 2870SOL     OW 8941   3.089   1.550   3.368
 2870SOL    HW1 8942   3.095   1.473   3.432
 2870SOL    HW2 8943   3.037   1.524   3.288
 2871SOL     OW 8944   2.183   0.943   2.104
 2871SOL    HW1 8945   2.265   0.982   2.062
 2871SOL    HW2 8946   2.156   0.861   2.055
 2872SOL     OW 8947   3.320   0.735   2.590
 2872SOL    HW1 8948   3.315   0.670   2.665
 2872SOL    HW2 8949   3.400   0.794   2.603
 2873SOL     OW 8950   2.323   1.266   3.589
 2873SOL    HW1 8951   2.273   1.267   3.503
 2873SOL    HW2 8952   2.260   1.248   3.665
 2874SOL     OW 8953   2.973   1.776   2.099
 2874SOL    HW1 8954   2.913   1.714   2.149
 2874SOL    HW2 8955   3.004   1.732   2.014
 2875SOL     OW 8956   2.064   0.285   3.360
 2875SOL    HW1 8957   1.984   0.345   3.347
 2875SOL    HW2 8958   2.054   0.236   3.446
 2876SOL     OW 8959   3.494   1.377   1.943
 2876SOL    HW1 8960   3.462   1.471   1.933
 2876SOL    HW2 8961   3.418   1.314   1.931
 2877SOL     OW 8962   2.326   1.743   2.185
 2877SOL    HW1 8963   2.359   1.782   2.271
 2877SOL    HW2 8964   2.402   1.736   2.120
 2878SOL     OW 8965   3.262   0.107   2.288
 2878SOL    HW1 8966   3.238   0.070   2.198
 2878SOL    HW2 8967   3.361   0.123   2.292
 2879SOL     OW 8968   2.111   1.785   3.103
 2879SOL    HW1 8969   2.168   1.720   3.153
 2879SOL    HW2 8970   2.095   1.752   3.010
 2880SOL     OW 8971   2.802   1.698   2.766
 2880SOL    HW1 8972   2.882   1.641   2.787
 2880SOL    HW2 8973   2.753   1.658   2.689
 2881SOL     OW 8974   2.244   0.700   2.342
 2881SOL    HW1 8975   2.289   0.610   2.339
 2881SOL    HW2 8976   2.150   0.689   2.375
 2882SOL     OW 8977   3.409   0.222   3.591
 2882SOL    HW1 8978   3.404   0.259   3.683
 2882SOL    HW2 8979   3.337   0.153   3.579
 2883SOL     OW 8980   2.476   0.122   1.979
 2883SOL    HW1 8981   2.574   0.100   1.986
 2883SOL    HW2 8982   2.445   0.105   1.886
 2884SOL     OW 8983   2.643   0.264   3.611
 2884SOL    HW1 8984   2.710   0.203   3.654
 2884SOL    HW2 8985   2.570   0.283   3.676
 2885SOL     OW 8986   2.750   1.514   3.057
 2885SOL    HW1 8987   2.727   1.489   2.963
 2885SOL    HW2 8988   2.811   1.445   3.096
 2886SOL     OW 8989   3.213   0.590   3.295
 2886SOL    HW1 8990   3.241   0.547   3.380
 2886SOL    HW2 8991   3.238   0.686   3.296
 2887SOL     OW 8992   2.665   1.402   2.786
 2887SOL    HW1 8993   2.755   1.416   2.744
 2887SOL    HW2 8994   2.594   1.404   2.715
 2888SOL     OW 8995   2.784   0.503   2.761
 2888SOL    HW1 8996   2.759   0.494   2.665
 2888SOL    HW2 8997   2.832   0.421   2.792
 2889SOL     OW 8998   2.401   0.064   2.374
 2889SOL    HW1 8999   2.320   0.065   2.432
 2889SOL    HW2 9000   2.404   0.147   2.319
 2890SOL     OW 9001   3.296   1.188   1.903
 2890SOL    HW1 9002   3.328   1.112   1.960
 2890SOL    HW2 9003   3.204   1.215   1.933
 2891SOL     OW 9004   2.159   0.035   2.033
 2891SOL    HW1 9005   2.208   0.119   2.012
 2891SOL    HW2 9006   2.221  -0.030   2.078
 2892SOL     OW 9007   2.797   0.236   2.342
 2892SOL    HW1 9008   2.749   0.277   2.264
 2892SOL    HW2 9009   2.896   0.234   2.323
 2893SOL     OW 9010   2.938   0.683   3.326
 2893SOL    HW1 9011   2.858   0.622   3.329
 2893SOL    HW2 9012   3.019   0.630   3.302
 2894SOL     OW 9013   3.089   1.570   2.655
 2894SOL    HW1 9014   3.110   1.644   2.590
 2894SOL    HW2 9015   3.157   1.570   2.728
 2895SOL     OW 9016   2.321   1.152   2.603
 2895SOL    HW1 9017   2.250   1.125   2.668
 2895SOL    HW2 9018   2.295   1.124   2.510
 2896SOL     OW 9019   3.133   1.797   2.453
 2896SOL    HW1 9020   3.177   1.861   2.389
 2896SOL    HW2 9021   3.083   1.849   2.523
 2897SOL     OW 9022   2.894   0.549   1.878
 2897SOL    HW1 9023   2.853   0.631   1.839
 2897SOL    HW2 9024   2.958   0.575   1.951
 2898SOL     OW 9025   1.940   0.556   3.248
 2898SOL    HW1 9026   2.032   0.555   3.207
 2898SOL    HW2 9027   1.934   0.630   3.315
 2899SOL     OW 9028   2.423   0.222   3.009
 2899SOL    HW1 9029   2.461   0.138   3.046
 2899SOL    HW2 9030   2.335   0.241   3.053
 2900SOL     OW 9031   2.728   0.454   2.504
 2900SOL    HW1 9032   2.696   0.526   2.442
 2900SOL    HW2 9033   2.752   0.373   2.451
 2901SOL     OW 9034   2.879   0.039   2.615
 2901SOL    HW1 9035   2.807   0.044   2.546
 2901SOL    HW2 9036   2.855  -0.030   2.684
 2902SOL     OW 9037   3.291   1.173   2.729
 2902SOL    HW1 9038   3.236   1.089   2.722
 2902SOL    HW2 9039   3.317   1.202   2.637
 2903SOL     OW 9040   3.328   0.590   2.854
 2903SOL    HW1 9041   3.298   0.495   2.861
 2903SOL    HW2 9042   3.401   0.606   2.920
 2904SOL     OW 9043   3.719   0.833   2.239
 2904SOL    HW1 9044   3.761   0.769   2.303
 2904SOL    HW2 9045   3.681   0.782   2.161
 2905SOL     OW 9046   2.350   1.385   2.036
 2905SOL    HW1 9047   2.263   1.370   2.083
 2905SOL    HW2 9048   2.333   1.411   1.941
 2906SOL     OW 9049   3.526   1.280   2.519
 2906SOL    HW1 9050   3.625   1.288   2.533
 2906SOL    HW2 9051   3.481   1.364   2.550
 2907SOL     OW 9052   3.252   0.575   1.940
 2907SOL    HW1 9053   3.198   0.554   2.021
 2907SOL    HW2 9054   3.343   0.534   1.949
 2908SOL     OW 9055   2.389   0.256   2.190
 2908SOL    HW1 9056   2.416   0.197   2.115
 2908SOL    HW2 9057   2.389   0.351   2.159
 2909SOL     OW 9058   3.616   1.223   3.450
 2909SOL    HW1 9059   3.707   1.184   3.437
 2909SOL    HW2 9060   3.624   1.319   3.474
 2910SOL     OW 9061   2.926   1.347   3.202
 2910SOL    HW1 9062   2.846   1.324   3.257
 2910SOL    HW2 9063   3.009   1.321   3.251
 2911SOL     OW 9064   3.454   1.629   3.487
 2911SOL    HW1 9065   3.481   1.663   3.397
 2911SOL    HW2 9066   3.533   1.591   3.533
 2912SOL     OW 9067   2.973   1.195   2.962
 2912SOL    HW1 9068   2.933   1.239   3.043
 2912SOL    HW2 9069   2.932   1.232   2.879
 2913SOL     OW 9070   3.500   1.099   2.941
 2913SOL    HW1 9071   3.505   1.180   3.000
 2913SOL    HW2 9072   3.414   1.101   2.890
 2914SOL     OW 9073   2.777   0.089   3.264
 2914SOL    HW1 9074   2.802   0.069   3.169
 2914SOL    HW2 9075   2.849   0.145   3.306
 2915SOL     OW 9076   2.842   1.116   3.581
 2915SOL    HW1 9077   2.743   1.122   3.591
 2915SOL    HW2 9078   2.865   1.036   3.525
 2916SOL     OW 9079   2.567   1.050   2.230
 2916SOL    HW1 9080   2.553   1.057   2.329
 2916SOL    HW2 9081   2.651   0.999   2.212
 2917SOL     OW 9082   2.272   0.813   3.113
 2917SOL    HW1 9083   2.358   0.825   3.163
 2917SOL    HW2 9084   2.230   0.726   3.140
 2918SOL     OW 9085   3.136   0.386   3.124
 2918SOL    HW1 9086   3.157   0.460   3.188
 2918SOL    HW2 9087   3.047   0.403   3.081
 2919SOL     OW 9088   1.926   1.564   3.193
 2919SOL    HW1 9089   1.880   1.646   3.159
 2919SOL    HW2 9090   2.024   1.583   3.202
 2920SOL     OW 9091   2.229   1.100   2.363
 2920SOL    HW1 9092   2.222   1.183   2.307
 2920SOL    HW2 9093   2.233   1.020   2.303
 2921SOL     OW 9094   2.428   0.537   2.727
 2921SOL    HW1 9095   2.440   0.603   2.653
 2921SOL    HW2 9096   2.474   0.571   2.810
 2922SOL     OW 9097   3.114   1.348   2.250
 2922SOL    HW1 9098   3.164   1.425   2.290
 2922SOL    HW2 9099   3.019   1.350   2.282
 2923SOL     OW 9100   3.134   1.445   3.004
 2923SOL    HW1 9101   3.181   1.458   3.091
 2923SOL    HW2 9102   3.068   1.371   3.013
 2924SOL     OW 9103   3.444   0.639   2.334
 2924SOL    HW1 9104   3.413   0.700   2.407
 2924SOL    HW2 9105   3.494   0.691   2.265
 2925SOL     OW 9106   2.216   1.510   3.191
 2925SOL    HW1 9107   2.195   1.466   3.104
 2925SOL    HW2 9108   2.313   1.536   3.194
 2926SOL     OW 9109   2.264   0.751   3.460
 2926SOL    HW1 9110   2.332   0.806   3.413
 2926SOL    HW2 9111   2.304   0.663   3.487
 2927SOL     OW 9112   3.449   0.779   3.532
 2927SOL    HW1 9113   3.357   0.817   3.527
 2927SOL    HW2 9114   3.509   0.826   3.467
 2928SOL     OW 9115   2.875   0.105   3.632
 2928SOL    HW1 9116   2.881   0.190   3.580
 2928SOL    HW2 9117   2.907   0.029   3.575
 2929SOL     OW 9118   2.366   0.050   3.602
 2929SOL    HW1 9119   2.324  -0.007   3.532
 2929SOL    HW2 9120   2.300   0.119   3.634
 2930SOL     OW 9121   2.435   0.870   2.891
 2930SOL    HW1 9122   2.479   0.959   2.882
 2930SOL    HW2 9123   2.372   0.870   2.968
 2931SOL     OW 9124   3.222   0.862   2.907
 2931SOL    HW1 9125   3.147   0.862   2.841
 2931SOL    HW2 9126   3.259   0.770   2.916
 2932SOL     OW 9127   3.071   0.525   2.137
 2932SOL    HW1 9128   3.084   0.441   2.191
 2932SOL    HW2 9129   3.042   0.599   2.197
 2933SOL     OW 9130   2.169   0.213   3.093
 2933SOL    HW1 9131   2.146   0.250   3.183
 2933SOL    HW2 9132   2.139   0.118   3.087
 2934SOL     OW 9133   1.899   1.310   3.144
 2934SOL    HW1 9134   1.952   1.261   3.212
 2934SOL    HW2 9135   1.921   1.408   3.149
 2935SOL     OW 9136   2.594   0.634   2.926
 2935SOL    HW1 9137   2.653   0.608   2.850
 2935SOL    HW2 9138   2.566   0.730   2.915
 2936SOL     OW 9139   3.590   0.935   3.716
 2936SOL    HW1 9140   3.544   0.928   3.627
 2936SOL    HW2 9141   3.528   0.979   3.782
 2937SOL     OW 9142   2.169   0.063   2.480
 2937SOL    HW1 9143   2.158   0.157   2.513
 2937SOL    HW2 9144   2.164   0.000   2.557
 2938SOL     OW 9145   3.484   0.367   2.236
 2938SOL    HW1 9146   3.486   0.291   2.300
 2938SOL    HW2 9147   3.436   0.444   2.276
 2939SOL     OW 9148   2.885   0.766   2.828
 2939SOL    HW1 9149   2.900   0.787   2.924
 2939SOL    HW2 9150   2.855   0.671   2.819
 2940SOL     OW 9151   2.842   1.573   3.562
 2940SOL    HW1 9152   2.822   1.617   3.474
 2940SOL    HW2 9153   2.881   1.482   3.546
 2941SOL     OW 9154   3.721   1.518   3.467
 2941SOL    HW1 9155   3.735   1.545   3.372
 2941SOL    HW2 9156   3.804   1.540   3.520
 2942SOL     OW 9157   2.212   0.898   3.666
 2942SOL    HW1 9158   2.288   0.942   3.714
 2942SOL    HW2 9159   2.247   0.851   3.584
 2943SOL     OW 9160   3.402   0.274   1.987
 2943SOL    HW1 9161   3.341   0.199   2.010
 2943SOL    HW2 9162   3.424   0.326   2.070
 2944SOL     OW 9163   3.165   0.838   1.904
 2944SOL    HW1 9164   3.199   0.745   1.919
 2944SOL    HW2 9165   3.183   0.865   1.809
 2945SOL     OW 9166   2.930   1.333   2.711
 2945SOL    HW1 9167   2.937   1.249   2.656
 2945SOL    HW2 9168   2.992   1.402   2.675
 2946SOL     OW 9169   2.181   0.810   2.811
 2946SOL    HW1 9170   2.274   0.846   2.816
 2946SOL    HW2 9171   2.175   0.725   2.863
 2947SOL     OW 9172   2.201   0.509   2.868
 2947SOL    HW1 9173   2.149   0.426   2.851
 2947SOL    HW2 9174   2.278   0.514   2.804
 2948SOL     OW 9175   3.000   0.380   3.540
 2948SOL    HW1 9176   2.955   0.443   3.604
 2948SOL    HW2 9177   3.093   0.411   3.523
 2949SOL     OW 9178   3.022   0.207   3.339
 2949SOL    HW1 9179   3.022   0.271   3.416
 2949SOL    HW2 9180   3.050   0.255   3.256
 2950SOL     OW 9181   1.870   1.326   2.062
 2950SOL    HW1 9182   1.777   1.347   2.031
 2950SOL    HW2 9183   1.880   1.227   2.075
 2951SOL     OW 9184   1.950   1.801   2.789
 2951SOL    HW1 9185   1.908   1.715   2.762
 2951SOL    HW2 9186   2.044   1.804   2.755
 2952SOL     OW 9187   2.366   1.568   2.772
 2952SOL    HW1 9188   2.432   1.642   2.781
 2952SOL    HW2 9189   2.410   1.489   2.730
 2953SOL     OW 9190   2.864   0.796   3.100
 2953SOL    HW1 9191   2.905   0.764   3.186
 2953SOL    HW2 9192   2.768   0.769   3.097
 2954SOL     OW 9193   1.902   0.544   2.976
 2954SOL    HW1 9194   1.987   0.511   2.935
 2954SOL    HW2 9195   1.915   0.559   3.074
 2955SOL     OW 9196   2.051   0.520   3.584
 2955SOL    HW1 9197   2.110   0.480   3.514
 2955SOL    HW2 9198   1.993   0.591   3.543
 2956SOL     OW 9199   3.231   0.950   3.522
 2956SOL    HW1 9200   3.270   1.039   3.542
 2956SOL    HW2 9201   3.241   0.930   3.425
 2957SOL     OW 9202   2.677   0.572   2.187
 2957SOL    HW1 9203   2.684   0.483   2.141
 2957SOL    HW2 9204   2.583   0.606   2.179
 2958SOL     OW 9205   3.519   0.604   3.068
 2958SOL    HW1 9206   3.481   0.535   3.130
 2958SOL    HW2 9207   3.601   0.568   3.024
 2959SOL     OW 9208   2.114   1.564   3.606
 2959SOL    HW1 9209   2.084   1.621   3.682
 2959SOL    HW2 9210   2.107   1.467   3.632
 2960SOL     OW 9211   2.533   0.464   3.131
 2960SOL    HW1 9212   2.499   0.375   3.101
 2960SOL    HW2 9213   2.559   0.518   3.051
 2961SOL     OW 9214   2.792   1.678   3.327
 2961SOL    HW1 9215   2.768   1.660   3.232
 2961SOL    HW2 9216   2.822   1.772   3.337
 2962SOL     OW 9217   2.335   0.500   2.053
 2962SOL    HW1 9218   2.396   0.580   2.057
 2962SOL    HW2 9219   2.240   0.531   2.060
 2963SOL     OW 9220   2.021   1.137   3.328
 2963SOL    HW1 9221   2.043   1.076   3.404
 2963SOL    HW2 9222   2.031   1.088   3.242
 2964SOL     OW 9223   3.209   1.059   3.096
 2964SOL    HW1 9224   3.233   0.996   3.022
 2964SOL    HW2 9225   3.119   1.099   3.078
 2965SOL     OW 9226   3.164   0.855   2.171
 2965SOL    HW1 9227   3.078   0.824   2.213
 2965SOL    HW2 9228   3.160   0.841   2.072
 2966SOL     OW 9229   3.621   1.747   3.016
 2966SOL    HW1 9230   3.682   1.777   2.943
 2966SOL    HW2 9231   3.583   1.658   2.994
 2967SOL     OW 9232   3.114   1.731   2.990
 2967SOL    HW1 9233   3.198   1.736   2.936
 2967SOL    HW2 9234   3.091   1.635   3.008
 2968SOL     OW 9235   1.945   1.258   2.884
 2968SOL    HW1 9236   1.940   1.257   2.984
 2968SOL    HW2 9237   1.862   1.217   2.846
 2969SOL     OW 9238   2.550   1.662   3.578
 2969SOL    HW1 9239   2.494   1.743   3.587
 2969SOL    HW2 9240   2.602   1.666   3.492
 2970SOL     OW 9241   3.588   0.135   2.385
 2970SOL    HW1 9242   3.661   0.118   2.318
 2970SOL    HW2 9243   3.557   0.048   2.423
 2971SOL     OW 9244   3.250   1.573   2.339
 2971SOL    HW1 9245   3.317   1.585   2.265
 2971SOL    HW2 9246   3.210   1.662   2.362
 2972SOL     OW 9247   1.992   1.794   3.713
 2972SOL    HW1 9248   1.951   1.720   3.766
 2972SOL    HW2 9249   2.056   1.845   3.771
 2973SOL     OW 9250   3.142   0.927   2.534
 2973SOL    HW1 9251   3.202   0.846   2.536
 2973SOL    HW2 9252   3.182   0.996   2.474
 2974SOL     OW 9253   2.692   1.273   3.284
 2974SOL    HW1 9254   2.687   1.306   3.379
 2974SOL    HW2 9255   2.606   1.292   3.238
 2975SOL     OW 9256   2.534   1.616   2.016
 2975SOL    HW1 9257   2.543   1.626   1.917
 2975SOL    HW2 9258   2.494   1.527   2.037
 2976SOL     OW 9259   3.512   1.720   3.256
 2976SOL    HW1 9260   3.565   1.730   3.172
 2976SOL    HW2 9261   3.485   1.810   3.290
 2977SOL     OW 9262   3.703   0.175   2.825
 2977SOL    HW1 9263   3.742   0.090   2.789
 2977SOL    HW2 9264   3.605   0.177   2.806
 2978SOL     OW 9265   2.125   0.326   2.582
 2978SOL    HW1 9266   2.046   0.377   2.548
 2978SOL    HW2 9267   2.116   0.311   2.680
 2979SOL     OW 9268   3.056   1.612   1.893
 2979SOL    HW1 9269   3.062   1.519   1.930
 2979SOL    HW2 9270   2.997   1.612   1.813
 2980SOL     OW 9271   2.684   1.002   3.234
 2980SOL    HW1 9272   2.724   1.001   3.142
 2980SOL    HW2 9273   2.694   1.094   3.274
 2981SOL     OW 9274   2.778   0.910   2.153
 2981SOL    HW1 9275   2.841   0.948   2.085
 2981SOL    HW2 9276   2.818   0.827   2.192
 2982SOL     OW 9277   3.366   1.607   1.906
 2982SOL    HW1 9278   3.274   1.644   1.913
 2982SOL    HW2 9279   3.404   1.627   1.816
 2983SOL     OW 9280   2.234   1.288   3.352
 2983SOL    HW1 9281   2.221   1.381   3.318
 2983SOL    HW2 9282   2.150   1.236   3.339
 2984SOL     OW 9283   3.476   1.292   3.151
 2984SOL    HW1 9284   3.536   1.295   3.231
 2984SOL    HW2 9285   3.401   1.356   3.164
 2985SOL     OW 9286   2.901   1.098   2.558
 2985SOL    HW1 9287   2.831   1.051   2.612
 2985SOL    HW2 9288   2.960   1.030   2.515
 2986SOL     OW 9289   2.876   0.236   2.833
 2986SOL    HW1 9290   2.868   0.200   2.740
 2986SOL    HW2 9291   2.874   0.160   2.898
 2987SOL     OW 9292   2.452   1.487   2.353
 2987SOL    HW1 9293   2.494   1.429   2.283
 2987SOL    HW2 9294   2.408   1.566   2.309
 2988SOL     OW 9295   3.571   0.385   3.243
 2988SOL    HW1 9296   3.644   0.454   3.247
 2988SOL    HW2 9297   3.599   0.310   3.184
 2989SOL     OW 9298   2.117   1.348   2.152
 2989SOL    HW1 9299   2.021   1.349   2.125
 2989SOL    HW2 9300   2.129   1.401   2.236
 2990SOL     OW 9301   1.967   1.013   3.588
 2990SOL    HW1 9302   1.890   0.980   3.642
 2990SOL    HW2 9303   2.052   0.983   3.630
 2991SOL     OW 9304   2.534   0.203   3.351
 2991SOL    HW1 9305   2.624   0.187   3.311
 2991SOL    HW2 9306   2.542   0.208   3.450
 2992SOL     OW 9307   1.937   0.345   1.895
 2992SOL    HW1 9308   1.845   0.317   1.866
 2992SOL    HW2 9309   1.968   0.422   1.839
 2993SOL     OW 9310   3.302   0.856   3.260
 2993SOL    HW1 9311   3.245   0.908   3.197
 2993SOL    HW2 9312   3.398   0.868   3.236
 2994SOL     OW 9313   1.934   0.166   2.180
 2994SOL    HW1 9314   1.917   0.249   2.126
 2994SOL    HW2 9315   2.024   0.129   2.158
 2995SOL     OW 9316   3.045   1.335   1.981
 2995SOL    HW1 9317   2.946   1.324   1.983
 2995SOL    HW2 9318   3.079   1.350   2.074
 2996SOL     OW 9319   2.475   0.842   3.293
 2996SOL    HW1 9320   2.531   0.923   3.276
 2996SOL    HW2 9321   2.534   0.762   3.296
 2997SOL     OW 9322   3.355   1.767   2.821
 2997SOL    HW1 9323   3.388   1.831   2.752
 2997SOL    HW2 9324   3.421   1.761   2.896
 2998SOL     OW 9325   2.578   0.565   3.570
 2998SOL    HW1 9326   2.597   0.630   3.644
 2998SOL    HW2 9327   2.638   0.485   3.579
 2999SOL     OW 9328   3.312   1.220   3.495
 2999SOL    HW1 9329   3.303   1.210   3.594
 2999SOL    HW2 9330   3.408   1.213   3.469
 3000SOL     OW 9331   2.252   1.741   3.422
 3000SOL    HW1 9332   2.161   1.782   3.420
 3000SOL    HW2 9333   2.245   1.647   3.454
 3001SOL     OW 9334   3.536   0.883   3.116
 3001SOL    HW1 9335   3.509   0.794   3.079
 3001SOL    HW2 9336   3.537   0.951   3.043
 3002SOL     OW 9337   3.087   0.325   2.311
 3002SOL    HW1 9338   3.152   0.251   2.300
 3002SOL    HW2 9339   3.107   0.375   2.395
 3003SOL     OW 9340   2.456   0.745   2.514
 3003SOL    HW1 9341   2.506   0.830   2.495
 3003SOL    HW2 9342   2.368   0.747   2.466
 3004SOL     OW 9343   3.639   0.342   3.504
 3004SOL    HW1 9344   3.622   0.373   3.410
 3004SOL    HW2 9345   3.555   0.305   3.542
 3005SOL     OW 9346   3.592   0.934   3.379
 3005SOL    HW1 9347   3.630   1.025   3.394
 3005SOL    HW2 9348   3.584   0.917   3.280
 3006SOL     OW 9349   2.721   1.374   1.878
 3006SOL    HW1 9350   2.675   1.389   1.966
 3006SOL    HW2 9351   2.765   1.459   1.848
 3007SOL     OW 9352   2.523   1.790   2.815
 3007SOL    HW1 9353   2.477   1.878   2.802
 3007SOL    HW2 9354   2.622   1.802   2.808
 3008SOL     OW 9355   2.721   0.956   2.723
 3008SOL    HW1 9356   2.775   0.887   2.771
 3008SOL    HW2 9357   2.689   1.025   2.789
 3009SOL     OW 9358   2.945   0.984   1.949
 3009SOL    HW1 9359   2.922   1.037   1.867
 3009SOL    HW2 9360   3.026   0.928   1.930
 3010SOL     OW 9361   3.723   1.569   2.713
 3010SOL    HW1 9362   3.652   1.557   2.643
 3010SOL    HW2 9363   3.724   1.490   2.773
 3011SOL     OW 9364   2.083   1.314   3.706
 3011SOL    HW1 9365   2.018   1.241   3.685
 3011SOL    HW2 9366   2.087   1.328   3.804
 3012SOL     OW 9367   1.941   1.240   2.515
 3012SOL    HW1 9368   1.940   1.193   2.603
 3012SOL    HW2 9369   2.023   1.212   2.464
 3013SOL     OW 9370   2.534   1.391   3.486
 3013SOL    HW1 9371   2.456   1.341   3.524
 3013SOL    HW2 9372   2.531   1.486   3.517
 3014SOL     OW 9373   3.686   0.192   3.089
 3014SOL    HW1 9374   3.682   0.102   3.133
 3014SOL    HW2 9375   3.689   0.181   2.990
 3015SOL     OW 9376   2.290   0.424   2.382
 3015SOL    HW1 9377   2.320   0.352   2.320
 3015SOL    HW2 9378   2.251   0.384   2.465
 3016SOL     OW 9379   3.567   1.487   2.966
 3016SOL    HW1 9380   3.474   1.462   2.939
 3016SOL    HW2 9381   3.593   1.437   3.048
 3017SOL     OW 9382   2.179   0.547   3.142
 3017SOL    HW1 9383   2.217   0.488   3.214
 3017SOL    HW2 9384   2.219   0.521   3.054
 3018SOL     OW 9385   2.674   1.586   2.549
 3018SOL    HW1 9386   2.706   1.596   2.455
 3018SOL    HW2 9387   2.595   1.524   2.551
 3019SOL     OW 9388   3.286   0.214   2.974
 3019SOL    HW1 9389   3.338   0.149   3.029
 3019SOL    HW2 9390   3.237   0.277   3.035
 3020SOL     OW 9391   2.863   0.034   3.016
 3020SOL    HW1 9392   2.800  -0.038   2.985
 3020SOL    HW2 9393   2.956  -0.002   3.016
 3021SOL     OW 9394   2.632   1.330   2.163
 3021SOL    HW1 9395   2.586   1.243   2.180
 3021SOL    HW2 9396   2.723   1.327   2.204
 3022SOL     OW 9397   2.480   1.567   3.146
 3022SOL    HW1 9398   2.475   1.649   3.203
 3022SOL    HW2 9399   2.569   1.564   3.101
 3023SOL     OW 9400   3.214   0.052   2.030
 3023SOL    HW1 9401   3.249   0.011   1.946
 3023SOL    HW2 9402   3.124   0.014   2.050
 3024SOL     OW 9403   3.162   0.453   2.553
 3024SOL    HW1 9404   3.103   0.533   2.557
 3024SOL    HW2 9405   3.177   0.418   2.646
 3025SOL     OW 9406   3.455   0.221   2.744
 3025SOL    HW1 9407   3.371   0.220   2.798
 3025SOL    HW2 9408   3.457   0.304   2.688
 3026SOL     OW 9409   1.901   1.077   2.162
 3026SOL    HW1 9410   2.000   1.066   2.153
 3026SOL    HW2 9411   1.861   0.991   2.194
 3027SOL     OW 9412   2.737   1.646   2.199
 3027SOL    HW1 9413   2.660   1.611   2.145
 3027SOL    HW2 9414   2.705   1.717   2.261
 3028SOL     OW 9415   2.092   0.628   3.837
 3028SOL    HW1 9416   1.999   0.626   3.874
 3028SOL    HW2 9417   2.093   0.589   3.745
 3029SOL     OW 9418   2.087   0.275   4.720
 3029SOL    HW1 9419   2.122   0.258   4.812
 3029SOL    HW2 9420   1.999   0.230   4.708
 3030SOL     OW 9421   1.881   0.368   4.371
 3030SOL    HW1 9422   1.799   0.411   4.410
 3030SOL    HW2 9423   1.853   0.295   4.308
 3031SOL     OW 9424   2.431   1.275   4.889
 3031SOL    HW1 9425   2.338   1.268   4.852
 3031SOL    HW2 9426   2.442   1.364   4.933
 3032SOL     OW 9427   3.417   1.511   4.427
 3032SOL    HW1 9428   3.360   1.495   4.508
 3032SOL    HW2 9429   3.358   1.521   4.347
 3033SOL     OW 9430   2.997   0.703   4.441
 3033SOL    HW1 9431   3.054   0.781   4.416
 3033SOL    HW2 9432   2.937   0.729   4.517
 3034SOL     OW 9433   3.617   0.607   3.955
 3034SOL    HW1 9434   3.605   0.594   3.856
 3034SOL    HW2 9435   3.587   0.526   4.004
 3035SOL     OW 9436   2.630   1.144   4.747
 3035SOL    HW1 9437   2.552   1.161   4.807
 3035SOL    HW2 9438   2.664   1.231   4.711
 3036SOL     OW 9439   2.712   0.798   5.547
 3036SOL    HW1 9440   2.708   0.874   5.612
 3036SOL    HW2 9441   2.734   0.834   5.456
 3037SOL     OW 9442   2.547   1.012   4.389
 3037SOL    HW1 9443   2.616   0.996   4.459
 3037SOL    HW2 9444   2.474   1.069   4.427
 3038SOL     OW 9445   2.548   1.161   5.527
 3038SOL    HW1 9446   2.608   1.240   5.541
 3038SOL    HW2 9447   2.462   1.192   5.486
 3039SOL     OW 9448   2.197   1.435   4.785
 3039SOL    HW1 9449   2.119   1.404   4.732
 3039SOL    HW2 9450   2.255   1.493   4.728
 3040SOL     OW 9451   3.322   1.505   5.063
 3040SOL    HW1 9452   3.346   1.599   5.089
 3040SOL    HW2 9453   3.306   1.451   5.145
 3041SOL     OW 9454   2.300   0.392   5.223
 3041SOL    HW1 9455   2.382   0.336   5.232
 3041SOL    HW2 9456   2.219   0.334   5.227
 3042SOL     OW 9457   3.465   0.447   4.461
 3042SOL    HW1 9458   3.391   0.493   4.411
 3042SOL    HW2 9459   3.516   0.515   4.514
 3043SOL     OW 9460   2.093   1.713   4.207
 3043SOL    HW1 9461   2.127   1.790   4.261
 3043SOL    HW2 9462   2.137   1.713   4.117
 3044SOL     OW 9463   2.989   1.341   5.414
 3044SOL    HW1 9464   3.036   1.341   5.502
 3044SOL    HW2 9465   2.941   1.254   5.403
 3045SOL     OW 9466   2.092   1.434   4.262
 3045SOL    HW1 9467   2.066   1.530   4.262
 3045SOL    HW2 9468   2.021   1.380   4.307
 3046SOL     OW 9469   2.102   1.091   4.610
 3046SOL    HW1 9470   2.116   1.007   4.662
 3046SOL    HW2 9471   2.047   1.155   4.665
 3047SOL     OW 9472   2.482   1.786   5.163
 3047SOL    HW1 9473   2.390   1.769   5.198
 3047SOL    HW2 9474   2.510   1.878   5.189
 3048SOL     OW 9475   2.468   0.964   3.847
 3048SOL    HW1 9476   2.475   1.048   3.793
 3048SOL    HW2 9477   2.514   0.977   3.935
 3049SOL     OW 9478   3.456   0.114   5.204
 3049SOL    HW1 9479   3.438   0.181   5.132
 3049SOL    HW2 9480   3.453   0.160   5.293
 3050SOL     OW 9481   1.984   0.643   4.287
 3050SOL    HW1 9482   1.939   0.555   4.304
 3050SOL    HW2 9483   1.983   0.697   4.371
 3051SOL     OW 9484   3.704   1.767   4.083
 3051SOL    HW1 9485   3.758   1.738   4.163
 3051SOL    HW2 9486   3.734   1.857   4.054
 3052SOL     OW 9487   1.889   1.596   3.841
 3052SOL    HW1 9488   1.870   1.500   3.862
 3052SOL    HW2 9489   1.856   1.654   3.916
 3053SOL     OW 9490   3.551   0.922   4.336
 3053SOL    HW1 9491   3.646   0.893   4.344
 3053SOL    HW2 9492   3.543   0.987   4.261
 3054SOL     OW 9493   3.503   1.108   4.156
 3054SOL    HW1 9494   3.589   1.110   4.104
 3054SOL    HW2 9495   3.517   1.155   4.244
 3055SOL     OW 9496   1.975   0.737   5.321
 3055SOL    HW1 9497   2.063   0.724   5.366
 3055SOL    HW2 9498   1.962   0.834   5.299
 3056SOL     OW 9499   2.475   1.365   4.450
 3056SOL    HW1 9500   2.426   1.278   4.459
 3056SOL    HW2 9501   2.452   1.408   4.363
 3057SOL     OW 9502   3.155   1.228   5.147
 3057SOL    HW1 9503   3.192   1.155   5.089
 3057SOL    HW2 9504   3.207   1.233   5.232
 3058SOL     OW 9505   2.671   0.004   4.226
 3058SOL    HW1 9506   2.711   0.095   4.217
 3058SOL    HW2 9507   2.571   0.012   4.232
 3059SOL     OW 9508   2.059   0.976   4.988
 3059SOL    HW1 9509   2.148   0.931   4.974
 3059SOL    HW2 9510   1.986   0.911   4.969
 3060SOL     OW 9511   3.387   0.999   3.914
 3060SOL    HW1 9512   3.324   0.923   3.927
 3060SOL    HW2 9513   3.435   1.017   4.000
 3061SOL     OW 9514   3.049   1.792   5.340
 3061SOL    HW1 9515   3.073   1.852   5.264
 3061SOL    HW2 9516   3.056   1.697   5.310
 3062SOL     OW 9517   2.179   0.251   5.525
 3062SOL    HW1 9518   2.250   0.322   5.531
 3062SOL    HW2 9519   2.091   0.290   5.553
 3063SOL     OW 9520   3.328   1.417   4.677
 3063SOL    HW1 9521   3.269   1.423   4.757
 3063SOL    HW2 9522   3.313   1.329   4.631
 3064SOL     OW 9523   3.529   1.714   4.296
 3064SOL    HW1 9524   3.488   1.691   4.208
 3064SOL    HW2 9525   3.511   1.640   4.361
 3065SOL     OW 9526   2.460   0.729   3.994
 3065SOL    HW1 9527   2.484   0.798   3.926
 3065SOL    HW2 9528   2.382   0.762   4.048
 3066SOL     OW 9529   3.143   0.345   4.668
 3066SOL    HW1 9530   3.057   0.295   4.655
 3066SOL    HW2 9531   3.205   0.291   4.724
 3067SOL     OW 9532   3.438   1.662   4.031
 3067SOL    HW1 9533   3.527   1.708   4.034
 3067SOL    HW2 9534   3.417   1.638   3.936
 3068SOL     OW 9535   2.669   0.605   5.189
 3068SOL    HW1 9536   2.622   0.602   5.278
 3068SOL    HW2 9537   2.618   0.550   5.123
 3069SOL     OW 9538   3.256   0.469   5.398
 3069SOL    HW1 9539   3.236   0.512   5.486
 3069SOL    HW2 9540   3.334   0.407   5.407
 3070SOL     OW 9541   2.835   0.890   5.296
 3070SOL    HW1 9542   2.881   0.806   5.267
 3070SOL    HW2 9543   2.779   0.924   5.221
 3071SOL     OW 9544   2.853   0.410   4.966
 3071SOL    HW1 9545   2.776   0.444   5.020
 3071SOL    HW2 9546   2.819   0.359   4.887
 3072SOL     OW 9547   2.903   0.701   4.153
 3072SOL    HW1 9548   2.929   0.697   4.249
 3072SOL    HW2 9549   2.818   0.650   4.139
 3073SOL     OW 9550   1.938   0.811   4.513
 3073SOL    HW1 9551   2.037   0.799   4.522
 3073SOL    HW2 9552   1.914   0.906   4.534
 3074SOL     OW 9553   1.992   1.821   5.295
 3074SOL    HW1 9554   1.982   1.806   5.394
 3074SOL    HW2 9555   1.906   1.857   5.259
 3075SOL     OW 9556   2.727   0.348   3.919
 3075SOL    HW1 9557   2.786   0.411   3.870
 3075SOL    HW2 9558   2.746   0.254   3.890
 3076SOL     OW 9559   3.581   0.585   5.555
 3076SOL    HW1 9560   3.555   0.674   5.519
 3076SOL    HW2 9561   3.579   0.517   5.482
 3077SOL     OW 9562   3.224   1.144   4.269
 3077SOL    HW1 9563   3.307   1.115   4.221
 3077SOL    HW2 9564   3.175   1.211   4.213
 3078SOL     OW 9565   2.412   0.196   4.609
 3078SOL    HW1 9566   2.407   0.191   4.709
 3078SOL    HW2 9567   2.414   0.292   4.580
 3079SOL     OW 9568   2.870   1.456   4.201
 3079SOL    HW1 9569   2.824   1.528   4.149
 3079SOL    HW2 9570   2.866   1.476   4.299
 3080SOL     OW 9571   2.213   1.801   4.577
 3080SOL    HW1 9572   2.263   1.715   4.583
 3080SOL    HW2 9573   2.278   1.878   4.574
 3081SOL     OW 9574   3.657   1.066   4.597
 3081SOL    HW1 9575   3.595   1.051   4.521
 3081SOL    HW2 9576   3.605   1.077   4.682
 3082SOL     OW 9577   3.089   1.550   5.230
 3082SOL    HW1 9578   3.095   1.473   5.294
 3082SOL    HW2 9579   3.037   1.524   5.150
 3083SOL     OW 9580   2.183   0.943   3.966
 3083SOL    HW1 9581   2.265   0.982   3.924
 3083SOL    HW2 9582   2.156   0.861   3.917
 3084SOL     OW 9583   3.320   0.735   4.452
 3084SOL    HW1 9584   3.315   0.670   4.527
 3084SOL    HW2 9585   3.400   0.794   4.465
 3085SOL     OW 9586   2.323   1.266   5.451
 3085SOL    HW1 9587   2.273   1.267   5.365
 3085SOL    HW2 9588   2.260   1.248   5.527
 3086SOL     OW 9589   2.973   1.776   3.961
 3086SOL    HW1 9590   2.913   1.714   4.011
 3086SOL    HW2 9591   3.004   1.732   3.876
 3087SOL     OW 9592   2.064   0.285   5.222
 3087SOL    HW1 9593   1.984   0.345   5.209
 3087SOL    HW2 9594   2.054   0.236   5.308
 3088SOL     OW 9595   3.494   1.377   3.805
 3088SOL    HW1 9596   3.462   1.471   3.795
 3088SOL    HW2 9597   3.418   1.314   3.793
 3089SOL     OW 9598   2.326   1.743   4.047
 3089SOL    HW1 9599   2.359   1.782   4.133
 3089SOL    HW2 9600   2.402   1.736   3.982
 3090SOL     OW 9601   3.262   0.107   4.150
 3090SOL    HW1 9602   3.238   0.070   4.060
 3090SOL    HW2 9603   3.361   0.123   4.154
 3091SOL     OW 9604   2.111   1.785   4.965
 3091SOL    HW1 9605   2.168   1.720   5.015
 3091SOL    HW2 9606   2.095   1.752   4.872
 3092SOL     OW 9607   2.802   1.698   4.628
 3092SOL    HW1 9608   2.882   1.641   4.649
 3092SOL    HW2 9609   2.753   1.658   4.551
 3093SOL     OW 9610   2.244   0.700   4.204
 3093SOL    HW1 9611   2.289   0.610   4.201
 3093SOL    HW2 9612   2.150   0.689   4.237
 3094SOL     OW 9613   3.409   0.222   5.453
 3094SOL    HW1 9614   3.404   0.259   5.545
 3094SOL    HW2 9615   3.337   0.153   5.441
 3095SOL     OW 9616   2.476   0.122   3.841
 3095SOL    HW1 9617   2.574   0.100   3.848
 3095SOL    HW2 9618   2.445   0.105   3.748
 3096SOL     OW 9619   2.643   0.264   5.473
 3096SOL    HW1 9620   2.710   0.203   5.516
 3096SOL    HW2 9621   2.570   0.283   5.538
 3097SOL     OW 9622   2.750   1.514   4.919
 3097SOL    HW1 9623   2.727   1.489   4.825
 3097SOL    HW2 9624   2.811   1.445   4.958
 3098SOL     OW 9625   3.213   0.590   5.157
 3098SOL    HW1 9626   3.241   0.547   5.242
 3098SOL    HW2 9627   3.238   0.686   5.158
 3099SOL     OW 9628   2.665   1.402   4.648
 3099SOL    HW1 9629   2.755   1.416   4.606
 3099SOL    HW2 9630   2.594   1.404   4.577
 3100SOL     OW 9631   2.784   0.503   4.623
 3100SOL    HW1 9632   2.759   0.494   4.527
 3100SOL    HW2 9633   2.832   0.421   4.654
 3101SOL     OW 9634   2.401   0.064   4.236
 3101SOL    HW1 9635   2.320   0.065   4.294
 3101SOL    HW2 9636   2.404   0.147   4.181
 3102SOL     OW 9637   3.296   1.188   3.765
 3102SOL    HW1 9638   3.328   1.112   3.822
 3102SOL    HW2 9639   3.204   1.215   3.795
 3103SOL     OW 9640   2.159   0.035   3.895
 3103SOL    HW1 9641   2.208   0.119   3.874
 3103SOL    HW2 9642   2.221  -0.030   3.940
 3104SOL     OW 9643   2.797   0.236   4.204
 3104SOL    HW1 9644   2.749   0.277   4.126
 3104SOL    HW2 9645   2.896   0.234   4.185
 3105SOL     OW 9646   2.938   0.683   5.188
 3105SOL    HW1 9647   2.858   0.622   5.191
 3105SOL    HW2 9648   3.019   0.630   5.164
 3106SOL     OW 9649   3.089   1.570   4.517
 3106SOL    HW1 9650   3.110   1.644   4.452
 3106SOL    HW2 9651   3.157   1.570   4.590
 3107SOL     OW 9652   2.321   1.152   4.465
 3107SOL    HW1 9653   2.250   1.125   4.530
 3107SOL    HW2 9654   2.295   1.124   4.372
 3108SOL     OW 9655   3.133   1.797   4.315
 3108SOL    HW1 9656   3.177   1.861   4.251
 3108SOL    HW2 9657   3.083   1.849   4.385
 3109SOL     OW 9658   2.894   0.549   3.740
 3109SOL    HW1 9659   2.853   0.631   3.701
 3109SOL    HW2 9660   2.958   0.575   3.813
 3110SOL     OW 9661   1.940   0.556   5.110
 3110SOL    HW1 9662   2.032   0.555   5.069
 3110SOL    HW2 9663   1.934   0.630   5.177
 3111SOL     OW 9664   2.423   0.222   4.871
 3111SOL    HW1 9665   2.461   0.138   4.908
 3111SOL    HW2 9666   2.335   0.241   4.915
 3112SOL     OW 9667   2.728   0.454   4.366
 3112SOL    HW1 9668   2.696   0.526   4.304
 3112SOL    HW2 9669   2.752   0.373   4.313
 3113SOL     OW 9670   2.879   0.039   4.477
 3113SOL    HW1 9671   2.807   0.044   4.408
 3113SOL    HW2 9672   2.855  -0.030   4.546
 3114SOL     OW 9673   3.291   1.173   4.591
 3114SOL    HW1 9674   3.236   1.089   4.584
 3114SOL    HW2 9675   3.317   1.202   4.499
 3115SOL     OW 9676   3.328   0.590   4.716
 3115SOL    HW1 9677   3.298   0.495   4.723
 3115SOL    HW2 9678   3.401   0.606   4.782
 3116SOL     OW 9679   3.719   0.833   4.101
 3116SOL    HW1 9680   3.761   0.769   4.165
 3116SOL    HW2 9681   3.681   0.782   4.023
 3117SOL     OW 9682   2.350   1.385   3.898
 3117SOL    HW1 9683   2.263   1.370   3.945
 3117SOL    HW2 9684   2.333   1.411   3.803
 3118SOL     OW 9685   3.526   1.280   4.381
 3118SOL    HW1 9686   3.625   1.288   4.395
 3118SOL    HW2 9687   3.481   1.364   4.412
 3119SOL     OW 9688   3.252   0.575   3.802
 3119SOL    HW1 9689   3.198   0.554   3.883
 3119SOL    HW2 9690   3.343   0.534   3.811
 3120SOL     OW 9691   2.389   0.256   4.052
 3120SOL    HW1 9692   2.416   0.197   3.977
 3120SOL    HW2 9693   2.389   0.351   4.021
 3121SOL     OW 9694   3.616   1.223   5.312
 3121SOL    HW1 9695   3.707   1.184   5.299
 3121SOL    HW2 9696   3.624   1.319   5.336
 3122SOL     OW 9697   2.926   1.347   5.064
 3122SOL    HW1 9698   2.846   1.324   5.119
 3122SOL    HW2 9699   3.009   1.321   5.113
 3123SOL     OW 9700   3.454   1.629   5.349
 3123SOL    HW1 9701   3.481   1.663   5.259
 3123SOL    HW2 9702   3.533   1.591   5.395
 3124SOL     OW 9703   2.973   1.195   4.824
 3124SOL    HW1 9704   2.933   1.239   4.905
 3124SOL    HW2 9705   2.932   1.232   4.741
 3125SOL     OW 9706   3.500   1.099   4.803
 3125SOL    HW1 9707   3.505   1.180   4.862
 3125SOL    HW2 9708   3.414   1.101   4.752
 3126SOL     OW 9709   2.777   0.089   5.126
 3126SOL    HW1 9710   2.802   0.069   5.031
 3126SOL    HW2 9711   2.849   0.145   5.168
 3127SOL     OW 9712   2.842   1.116   5.443
 3127SOL    HW1 9713   2.743   1.122   5.453
 3127SOL    HW2 9714   2.865   1.036   5.387
 3128SOL     OW 9715   2.567   1.050   4.092
 3128SOL    HW1 9716   2.553   1.057   4.191
 3128SOL    HW2 9717   2.651   0.999   4.074
 3129SOL     OW 9718   2.272   0.813   4.975
 3129SOL    HW1 9719   2.358   0.825   5.025
 3129SOL    HW2 9720   2.230   0.726   5.002
 3130SOL     OW 9721   3.136   0.386   4.986
 3130SOL    HW1 9722   3.157   0.460   5.050
 3130SOL    HW2 9723   3.047   0.403   4.943
 3131SOL     OW 9724   1.926   1.564   5.055
 3131SOL    HW1 9725   1.880   1.646   5.021
 3131SOL    HW2 9726   2.024   1.583   5.064
 3132SOL     OW 9727   2.229   1.100   4.225
 3132SOL    HW1 9728   2.222   1.183   4.169
 3132SOL    HW2 9729   2.233   1.020   4.165
 3133SOL     OW 9730   2.428   0.537   4.589
 3133SOL    HW1 9731   2.440   0.603   4.515
 3133SOL    HW2 9732   2.474   0.571   4.672
 3134SOL     OW 9733   3.114   1.348   4.112
 3134SOL    HW1 9734   3.164   1.425   4.152
 3134SOL    HW2 9735   3.019   1.350   4.144
 3135SOL     OW 9736   3.134   1.445   4.866
 3135SOL    HW1 9737   3.181   1.458   4.953
 3135SOL    HW2 9738   3.068   1.371   4.875
 3136SOL     OW 9739   3.444   0.639   4.196
 3136SOL    HW1 9740   3.413   0.700   4.269
 3136SOL    HW2 9741   3.494   0.691   4.127
 3137SOL     OW 9742   2.216   1.510   5.053
 3137SOL    HW1 9743   2.195   1.466   4.966
 3137SOL    HW2 9744   2.313   1.536   5.056
 3138SOL     OW 9745   2.264   0.751   5.322
 3138SOL    HW1 9746   2.332   0.806   5.275
 3138SOL    HW2 9747   2.304   0.663   5.349
 3139SOL     OW 9748   3.449   0.779   5.394
 3139SOL    HW1 9749   3.357   0.817   5.389
 3139SOL    HW2 9750   3.509   0.826   5.329
 3140SOL     OW 9751   2.875   0.105   5.494
 3140SOL    HW1 9752   2.881   0.190   5.442
 3140SOL    HW2 9753   2.907   0.029   5.437
 3141SOL     OW 9754   2.366   0.050   5.464
 3141SOL    HW1 9755   2.324  -0.007   5.394
 3141SOL    HW2 9756   2.300   0.119   5.496
 3142SOL     OW 9757   2.435   0.870   4.753
 3142SOL    HW1 9758   2.479   0.959   4.744
 3142SOL    HW2 9759   2.372   0.870   4.830
 3143SOL     OW 9760   3.222   0.862   4.769
 3143SOL    HW1 9761   3.147   0.862   4.703
 3143SOL    HW2 9762   3.259   0.770   4.778
 3144SOL     OW 9763   3.071   0.525   3.999
 3144SOL    HW1 9764   3.084   0.441   4.053
 3144SOL    HW2 9765   3.042   0.599   4.059
 3145SOL     OW 9766   2.169   0.213   4.955
 3145SOL    HW1 9767   2.146   0.250   5.045
 3145SOL    HW2 9768   2.139   0.118   4.949
 3146SOL     OW 9769   1.899   1.310   5.006
 3146SOL    HW1 9770   1.952   1.261   5.074
 3146SOL    HW2 9771   1.921   1.408   5.011
 3147SOL     OW 9772   2.594   0.634   4.788
 3147SOL    HW1 9773   2.653   0.608   4.712
 3147SOL    HW2 9774   2.566   0.730   4.777
 3148SOL     OW 9775   3.590   0.935   5.578
 3148SOL    HW1 9776   3.544   0.928   5.489
 3148SOL    HW2 9777   3.528   0.979   5.644
 3149SOL     OW 9778   2.169   0.063   4.342
 3149SOL    HW1 9779   2.158   0.157   4.375
 3149SOL    HW2 9780   2.164   0.000   4.419
 3150SOL     OW 9781   3.484   0.367   4.098
 3150SOL    HW1 9782   3.486   0.291   4.162
 3150SOL    HW2 9783   3.436   0.444   4.138
 3151SOL     OW 9784   2.885   0.766   4.690
 3151SOL    HW1 9785   2.900   0.787   4.786
 3151SOL    HW2 9786   2.855   0.671   4.681
 3152SOL     OW 9787   2.842   1.573   5.424
 3152SOL    HW1 9788   2.822   1.617   5.336
 3152SOL    HW2 9789   2.881   1.482   5.408
 3153SOL     OW 9790   3.721   1.518   5.329
 3153SOL    HW1 9791   3.735   1.545   5.234
 3153SOL    HW2 9792   3.804   1.540   5.382
 3154SOL     OW 9793   2.212   0.898   5.528
 3154SOL    HW1 9794   2.288   0.942   5.576
 3154SOL    HW2 9795   2.247   0.851   5.446
 3155SOL     OW 9796   3.402   0.274   3.849
 3155SOL    HW1 9797   3.341   0.199   3.872
 3155SOL    HW2 9798   3.424   0.326   3.932
 3156SOL     OW 9799   3.165   0.838   3.766
 3156SOL    HW1 9800   3.199   0.745   3.781
 3156SOL    HW2 9801   3.183   0.865   3.671
 3157SOL     OW 9802   2.930   1.333   4.573
 3157SOL    HW1 9803   2.937   1.249   4.518
 3157SOL    HW2 9804   2.992   1.402   4.537
 3158SOL     OW 9805   2.181   0.810   4.673
 3158SOL    HW1 9806   2.274   0.846   4.678
 3158SOL    HW2 9807   2.175   0.725   4.725
 3159SOL     OW 9808   2.201   0.509   4.730
 3159SOL    HW1 9809   2.149   0.426   4.713
 3159SOL    HW2 9810   2.278   0.514   4.666
 3160SOL     OW 9811   3.000   0.380   5.402
 3160SOL    HW1 9812   2.955   0.443   5.466
 3160SOL    HW2 9813   3.093   0.411   5.385
 3161SOL     OW 9814   3.022   0.207   5.201
 3161SOL    HW1 9815   3.022   0.271   5.278
 3161SOL    HW2 9816   3.050   0.255   5.118
 3162SOL     OW 9817   1.870   1.326   3.924
 3162SOL    HW1 9818   1.777   1.347   3.893
 3162SOL    HW2 9819   1.880   1.227   3.937
 3163SOL     OW 9820   1.950   1.801   4.651
 3163SOL    HW1 9821   1.908   1.715   4.624
 3163SOL    HW2 9822   2.044   1.804   4.617
 3164SOL     OW 9823   2.366   1.568   4.634
 3164SOL    HW1 9824   2.432   1.642   4.643
 3164SOL    HW2 9825   2.410   1.489   4.592
 3165SOL     OW 9826   2.864   0.796   4.962
 3165SOL    HW1 9827   2.905   0.764   5.048
 3165SOL    HW2 9828   2.768   0.769   4.959
 3166SOL     OW 9829   1.902   0.544   4.838
 3166SOL    HW1 9830   1.987   0.511   4.797
 3166SOL    HW2 9831   1.915   0.559   4.936
 3167SOL     OW 9832   2.051   0.520   5.446
 3167SOL    HW1 9833   2.110   0.480   5.376
 3167SOL    HW2 9834   1.993   0.591   5.405
 3168SOL     OW 9835   3.231   0.950   5.384
 3168SOL    HW1 9836   3.270   1.039   5.404
 3168SOL    HW2 9837   3.241   0.930   5.287
 3169SOL     OW 9838   2.677   0.572   4.049
 3169SOL    HW1 9839   2.684   0.483   4.003
 3169SOL    HW2 9840   2.583   0.606   4.041
 3170SOL     OW 9841   3.519   0.604   4.930
 3170SOL    HW1 9842   3.481   0.535   4.992
 3170SOL    HW2 9843   3.601   0.568   4.886
 3171SOL     OW 9844   2.114   1.564   5.468
 3171SOL    HW1 9845   2.084   1.621   5.544
 3171SOL    HW2 9846   2.107   1.467   5.494
 3172SOL     OW 9847   2.533   0.464   4.993
 3172SOL    HW1 9848   2.499   0.375   4.963
 3172SOL    HW2 9849   2.559   0.518   4.913
 3173SOL     OW 9850   2.792   1.678   5.189
 3173SOL    HW1 9851   2.768   1.660   5.094
 3173SOL    HW2 9852   2.822   1.772   5.199
 3174SOL     OW 9853   2.335   0.500   3.915
 3174SOL    HW1 9854   2.396   0.580   3.919
 3174SOL    HW2 9855   2.240   0.531   3.922
 3175SOL     OW 9856   2.021   1.137   5.190
 3175SOL    HW1 9857   2.043   1.076   5.266
 3175SOL    HW2 9858   2.031   1.088   5.104
 3176SOL     OW 9859   3.209   1.059   4.958
 3176SOL    HW1 9860   3.233   0.996   4.884
 3176SOL    HW2 9861   3.119   1.099   4.940
 3177SOL     OW 9862   3.164   0.855   4.033
 3177SOL    HW1 9863   3.078   0.824   4.075
 3177SOL    HW2 9864   3.160   0.841   3.934
 3178SOL     OW 9865   3.621   1.747   4.878
 3178SOL    HW1 9866   3.682   1.777   4.805
 3178SOL    HW2 9867   3.583   1.658   4.856
 3179SOL     OW 9868   3.114   1.731   4.852
 3179SOL    HW1 9869   3.198   1.736   4.798
 3179SOL    HW2 9870   3.091   1.635   4.870
 3180SOL     OW 9871   1.945   1.258   4.746
 3180SOL    HW1 9872   1.940   1.257   4.846
 3180SOL    HW2 9873   1.862   1.217   4.708
 3181SOL     OW 9874   2.550   1.662   5.440
 3181SOL    HW1 9875   2.494   1.743   5.449
 3181SOL    HW2 9876   2.602   1.666   5.354
 3182SOL     OW 9877   3.588   0.135   4.247
 3182SOL    HW1 9878   3.661   0.118   4.180
 3182SOL    HW2 9879   3.557   0.048   4.285
 3183SOL     OW 9880   3.250   1.573   4.201
 3183SOL    HW1 9881   3.317   1.585   4.127
 3183SOL    HW2 9882   3.210   1.662   4.224
 3184SOL     OW 9883   1.992   1.794   5.575
 3184SOL    HW1 9884   1.951   1.720   5.628
 3184SOL    HW2 9885   2.056   1.845   5.633
 3185SOL     OW 9886   3.142   0.927   4.396
 3185SOL    HW1 9887   3.202   0.846   4.398
 3185SOL    HW2 9888   3.182   0.996   4.336
 3186SOL     OW 9889   2.692   1.273   5.146
 3186SOL    HW1 9890   2.687   1.306   5.241
 3186SOL    HW2 9891   2.606   1.292   5.100
 3187SOL     OW 9892   2.534   1.616   3.878
 3187SOL    HW1 9893   2.543   1.626   3.779
 3187SOL    HW2 9894   2.494   1.527   3.899
 3188SOL     OW 9895   3.512   1.720   5.118
 3188SOL    HW1 9896   3.565   1.730   5.034
 3188SOL    HW2 9897   3.485   1.810   5.152
 3189SOL     OW 9898   3.703   0.175   4.687
 3189SOL    HW1 9899   3.742   0.090   4.651
 3189SOL    HW2 9900   3.605   0.177   4.668
 3190SOL     OW 9901   2.125   0.326   4.444
 3190SOL    HW1 9902   2.046   0.377   4.410
 3190SOL    HW2 9903   2.116   0.311   4.542
 3191SOL     OW 9904   3.056   1.612   3.755
 3191SOL    HW1 9905   3.062   1.519   3.792
 3191SOL    HW2 9906   2.997   1.612   3.675
 3192SOL     OW 9907   2.684   1.002   5.096
 3192SOL    HW1 9908   2.724   1.001   5.004
 3192SOL    HW2 9909   2.694   1.094   5.136
 3193SOL     OW 9910   2.778   0.910   4.015
 3193SOL    HW1 9911   2.841   0.948   3.947
 3193SOL    HW2 9912   2.818   0.827   4.054
 3194SOL     OW 9913   3.366   1.607   3.768
 3194SOL    HW1 9914   3.274   1.644   3.775
 3194SOL    HW2 9915   3.404   1.627   3.678
 3195SOL     OW 9916   2.234   1.288   5.214
 3195SOL    HW1 9917   2.221   1.381   5.180
 3195SOL    HW2 9918   2.150   1.236   5.201
 3196SOL     OW 9919   3.476   1.292   5.013
 3196SOL    HW1 9920   3.536   1.295   5.093
 3196SOL    HW2 9921   3.401   1.356   5.026
 3197SOL     OW 9922   2.901   1.098   4.420
 3197SOL    HW1 9923   2.831   1.051   4.474
 3197SOL    HW2 9924   2.960   1.030   4.377
 3198SOL     OW 9925   2.876   0.236   4.695
 3198SOL    HW1 9926   2.868   0.200   4.602
 3198SOL    HW2 9927   2.874   0.160   4.760
 3199SOL     OW 9928   2.452   1.487   4.215
 3199SOL    HW1 9929   2.494   1.429   4.145
 3199SOL    HW2 9930   2.408   1.566   4.171
 3200SOL     OW 9931   3.571   0.385   5.105
 3200SOL    HW1 9932   3.644   0.454   5.109
 3200SOL    HW2 9933   3.599   0.310   5.046
 3201SOL     OW 9934   2.117   1.348   4.014
 3201SOL    HW1 9935   2.021   1.349   3.987
 3201SOL    HW2 9936   2.129   1.401   4.098
 3202SOL     OW 9937   1.967   1.013   5.450
 3202SOL    HW1 9938   1.890   0.980   5.504
 3202SOL    HW2 9939   2.052   0.983   5.492
 3203SOL     OW 9940   2.534   0.203   5.213
 3203SOL    HW1 9941   2.624   0.187   5.173
 3203SOL    HW2 9942   2.542   0.208   5.312
 3204SOL     OW 9943   1.937   0.345   3.757
 3204SOL    HW1 9944   1.845   0.317   3.728
 3204SOL    HW2 9945   1.968   0.422   3.701
 3205SOL     OW 9946   3.302   0.856   5.122
 3205SOL    HW1 9947   3.245   0.908   5.059
 3205SOL    HW2 9948   3.398   0.868   5.098
 3206SOL     OW 9949   1.934   0.166   4.042
 3206SOL    HW1 9950   1.917   0.249   3.988
 3206SOL    HW2 9951   2.024   0.129   4.020
 3207SOL     OW 9952   3.045   1.335   3.843
 3207SOL    HW1 9953   2.946   1.324   3.845
 3207SOL    HW2 9954   3.079   1.350   3.936
 3208SOL     OW 9955   2.475   0.842   5.155
 3208SOL    HW1 9956   2.531   0.923   5.138
 3208SOL    HW2 9957   2.534   0.762   5.158
 3209SOL     OW 9958   3.355   1.767   4.683
 3209SOL    HW1 9959   3.388   1.831   4.614
 3209SOL    HW2 9960   3.421   1.761   4.758
 3210SOL     OW 9961   2.578   0.565   5.432
 3210SOL    HW1 9962   2.597   0.630   5.506
 3210SOL    HW2 9963   2.638   0.485   5.441
 3211SOL     OW 9964   3.312   1.220   5.357
 3211SOL    HW1 9965   3.303   1.210   5.456
 3211SOL    HW2 9966   3.408   1.213   5.331
 3212SOL     OW 9967   2.252   1.741   5.284
 3212SOL    HW1 9968   2.161   1.782   5.282
 3212SOL    HW2 9969   2.245   1.647   5.316
 3213SOL     OW 9970   3.536   0.883   4.978
 3213SOL    HW1 9971   3.509   0.794   4.941
 3213SOL    HW2 9972   3.537   0.951   4.905
 3214SOL     OW 9973   3.087   0.325   4.173
 3214SOL    HW1 9974   3.152   0.251   4.162
 3214SOL    HW2 9975   3.107   0.375   4.257
 3215SOL     OW 9976   2.456   0.745   4.376
 3215SOL    HW1 9977   2.506   0.830   4.357
 3215SOL    HW2 9978   2.368   0.747   4.328
 3216SOL     OW 9979   3.639   0.342   5.366
 3216SOL    HW1 9980   3.622   0.373   5.272
 3216SOL    HW2 9981   3.555   0.305   5.404
 3217SOL     OW 9982   3.592   0.934   5.241
 3217SOL    HW1 9983   3.630   1.025   5.256
 3217SOL    HW2 9984   3.584   0.917   5.142
 3218SOL     OW 9985   2.721   1.374   3.740
 3218SOL    HW1 9986   2.675   1.389   3.828
 3218SOL    HW2 9987   2.765   1.459   3.710
 3219SOL     OW 9988   2.523   1.790   4.677
 3219SOL    HW1 9989   2.477   1.878   4.664
 3219SOL    HW2 9990   2.622   1.802   4.670
 3220SOL     OW 9991   2.721   0.956   4.585
 3220SOL    HW1 9992   2.775   0.887   4.633
 3220SOL    HW2 9993   2.689   1.025   4.651
 3221SOL     OW 9994   2.945   0.984   3.811
 3221SOL    HW1 9995   2.922   1.037   3.729
 3221SOL    HW2 9996   3.026   0.928   3.792
 3222SOL     OW 9997   3.723   1.569   4.575
 3222SOL    HW1 9998   3.652   1.557   4.505
 3222SOL    HW2 9999   3.724   1.490   4.635
 3223SOL     OW10000   2.083   1.314   5.568
 3223SOL    HW110001   2.018   1.241   5.547
 3223SOL    HW210002   2.087   1.328   5.666
 3224SOL     OW10003   1.941   1.240   4.377
 3224SOL    HW110004   1.940   1.193   4.465
 3224SOL    HW210005   2.023   1.212   4.326
 3225SOL     OW10006   2.534   1.391   5.348
 3225SOL    HW110007   2.456   1.341   5.386
 3225SOL    HW210008   2.531   1.486   5.379
 3226SOL     OW10009   3.686   0.192   4.951
 3226SOL    HW110010   3.682   0.102   4.995
 3226SOL    HW210011   3.689   0.181   4.852
 3227SOL     OW10012   2.290   0.424   4.244
 3227SOL    HW110013   2.320   0.352   4.182
 3227SOL    HW210014   2.251   0.384   4.327
 3228SOL     OW10015   3.567   1.487   4.828
 3228SOL    HW110016   3.474   1.462   4.801
 3228SOL    HW210017   3.593   1.437   4.910
 3229SOL     OW10018   2.179   0.547   5.004
 3229SOL    HW110019   2.217   0.488   5.076
 3229SOL    HW210020   2.219   0.521   4.916
 3230SOL     OW10021   2.674   1.586   4.411
 3230SOL    HW110022   2.706   1.596   4.317
 3230SOL    HW210023   2.595   1.524   4.413
 3231SOL     OW10024   3.286   0.214   4.836
 3231SOL    HW110025   3.338   0.149   4.891
 3231SOL    HW210026   3.237   0.277   4.897
 3232SOL     OW10027   2.863   0.034   4.878
 3232SOL    HW110028   2.800  -0.038   4.847
 3232SOL    HW210029   2.956  -0.002   4.878
 3233SOL     OW10030   2.632   1.330   4.025
 3233SOL    HW110031   2.586   1.243   4.042
 3233SOL    HW210032   2.723   1.327   4.066
 3234SOL     OW10033   2.480   1.567   5.008
 3234SOL    HW110034   2.475   1.649   5.065
 3234SOL    HW210035   2.569   1.564   4.963
 3235SOL     OW10036   3.214   0.052   3.892
 3235SOL    HW110037   3.249   0.011   3.808
 3235SOL    HW210038   3.124   0.014   3.912
 3236SOL     OW10039   3.162   0.453   4.415
 3236SOL    HW110040   3.103   0.533   4.419
 3236SOL    HW210041   3.177   0.418   4.508
 3237SOL     OW10042   3.455   0.221   4.606
 3237SOL    HW110043   3.371   0.220   4.660
 3237SOL    HW210044   3.457   0.304   4.550
 3238SOL     OW10045   1.901   1.077   4.024
 3238SOL    HW110046   2.000   1.066   4.015
 3238SOL    HW210047   1.861   0.991   4.056
 3239SOL     OW10048   2.737   1.646   4.061
 3239SOL    HW110049   2.660   1.611   4.007
 3239SOL    HW210050   2.705   1.717   4.123
 3240SOL     OW10051   2.092   0.628   5.699
 3240SOL    HW110052   1.999   0.626   5.736
 3240SOL    HW210053   2.093   0.589   5.607
 3241SOL     OW10054   2.087   0.275   6.582
 3241SOL    HW110055   2.122   0.258   6.674
 3241SOL    HW210056   1.999   0.230   6.570
 3242SOL     OW10057   1.881   0.368   6.233
 3242SOL    HW110058   1.799   0.411   6.272
 3242SOL    HW210059   1.853   0.295   6.170
 3243SOL     OW10060   2.431   1.275   6.751
 3243SOL    HW110061   2.338   1.268   6.714
 3243SOL    HW210062   2.442   1.364   6.795
 3244SOL     OW10063   3.417   1.511   6.289
 3244SOL    HW110064   3.360   1.495   6.370
 3244SOL    HW210065   3.358   1.521   6.209
 3245SOL     OW10066   2.997   0.703   6.303
 3245SOL    HW110067   3.054   0.781   6.278
 3245SOL    HW210068   2.937   0.729   6.379
 3246SOL     OW10069   3.617   0.607   5.817
 3246SOL    HW110070   3.605   0.594   5.718
 3246SOL    HW210071   3.587   0.526   5.866
 3247SOL     OW10072   2.630   1.144   6.609
 3247SOL    HW110073   2.552   1.161   6.669
 3247SOL    HW210074   2.664   1.231   6.573
 3248SOL     OW10075   2.712   0.798   7.409
 3248SOL    HW110076   2.708   0.874   7.474
 3248SOL    HW210077   2.734   0.834   7.318
 3249SOL     OW10078   2.547   1.012   6.251
 3249SOL    HW110079   2.616   0.996   6.321
 3249SOL    HW210080   2.474   1.069   6.289
 3250SOL     OW10081   2.548   1.161   7.389
 3250SOL    HW110082   2.608   1.240   7.403
 3250SOL    HW210083   2.462   1.192   7.348
 3251SOL     OW10084   2.197   1.435   6.647
 3251SOL    HW110085   2.119   1.404   6.594
 3251SOL    HW210086   2.255   1.493   6.590
 3252SOL     OW10087   3.322   1.505   6.925
 3252SOL    HW110088   3.346   1.599   6.951
 3252SOL    HW210089   3.306   1.451   7.007
 3253SOL     OW10090   2.300   0.392   7.085
 3253SOL    HW110091   2.382   0.336   7.094
 3253SOL    HW210092   2.219   0.334   7.089
 3254SOL     OW10093   3.465   0.447   6.323
 3254SOL    HW110094   3.391   0.493   6.273
 3254SOL    HW210095   3.516   0.515   6.376
 3255SOL     OW10096   2.093   1.713   6.069
 3255SOL    HW110097   2.127   1.790   6.123
 3255SOL    HW210098   2.137   1.713   5.979
 3256SOL     OW10099   2.989   1.341   7.276
 3256SOL    HW110100   3.036   1.341   7.364
 3256SOL    HW210101   2.941   1.254   7.265
 3257SOL     OW10102   2.092   1.434   6.124
 3257SOL    HW110103   2.066   1.530   6.124
 3257SOL    HW210104   2.021   1.380   6.169
 3258SOL     OW10105   2.102   1.091   6.472
 3258SOL    HW110106   2.116   1.007   6.524
 3258SOL    HW210107   2.047   1.155   6.527
 3259SOL     OW10108   2.482   1.786   7.025
 3259SOL    HW110109   2.390   1.769   7.060
 3259SOL    HW210110   2.510   1.878   7.051
 3260SOL     OW10111   2.468   0.964   5.709
 3260SOL    HW110112   2.475   1.048   5.655
 3260SOL    HW210113   2.514   0.977   5.797
 3261SOL     OW10114   3.456   0.114   7.066
 3261SOL    HW110115   3.438   0.181   6.994
 3261SOL    HW210116   3.453   0.160   7.155
 3262SOL     OW10117   1.984   0.643   6.149
 3262SOL    HW110118   1.939   0.555   6.166
 3262SOL    HW210119   1.983   0.697   6.233
 3263SOL     OW10120   3.704   1.767   5.945
 3263SOL    HW110121   3.758   1.738   6.025
 3263SOL    HW210122   3.734   1.857   5.916
 3264SOL     OW10123   1.889   1.596   5.703
 3264SOL    HW110124   1.870   1.500   5.724
 3264SOL    HW210125   1.856   1.654   5.778
 3265SOL     OW10126   3.551   0.922   6.198
 3265SOL    HW110127   3.646   0.893   6.206
 3265SOL    HW210128   3.543   0.987   6.123
 3266SOL     OW10129   3.503   1.108   6.018
 3266SOL    HW110130   3.589   1.110   5.966
 3266SOL    HW210131   3.517   1.155   6.106
 3267SOL     OW10132   1.975   0.737   7.183
 3267SOL    HW110133   2.063   0.724   7.228
 3267SOL    HW210134   1.962   0.834   7.161
 3268SOL     OW10135   2.475   1.365   6.312
 3268SOL    HW110136   2.426   1.278   6.321
 3268SOL    HW210137   2.452   1.408   6.225
 3269SOL     OW10138   3.155   1.228   7.009
 3269SOL    HW110139   3.192   1.155   6.951
 3269SOL    HW210140   3.207   1.233   7.094
 3270SOL     OW10141   2.671   0.004   6.088
 3270SOL    HW110142   2.711   0.095   6.079
 3270SOL    HW210143   2.571   0.012   6.094
 3271SOL     OW10144   2.059   0.976   6.850
 3271SOL    HW110145   2.148   0.931   6.836
 3271SOL    HW210146   1.986   0.911   6.831
 3272SOL     OW10147   3.387   0.999   5.776
 3272SOL    HW110148   3.324   0.923   5.789
 3272SOL    HW210149   3.435   1.017   5.862
 3273SOL     OW10150   3.049   1.792   7.202
 3273SOL    HW110151   3.073   1.852   7.126
 3273SOL    HW210152   3.056   1.697   7.172
 3274SOL     OW10153   2.179   0.251   7.387
 3274SOL    HW110154   2.250   0.322   7.393
 3274SOL    HW210155   2.091   0.290   7.415
 3275SOL     OW10156   3.328   1.417   6.539
 3275SOL    HW110157   3.269   1.423   6.619
 3275SOL    HW210158   3.313   1.329   6.493
 3276SOL     OW10159   3.529   1.714   6.158
 3276SOL    HW110160   3.488   1.691   6.070
 3276SOL    HW210161   3.511   1.640   6.223
 3277SOL     OW10162   2.460   0.729   5.856
 3277SOL    HW110163   2.484   0.798   5.788
 3277SOL    HW210164   2.382   0.762   5.910
 3278SOL     OW10165   3.143   0.345   6.530
 3278SOL    HW110166   3.057   0.295   6.517
 3278SOL    HW210167   3.205   0.291   6.586
 3279SOL     OW10168   3.438   1.662   5.893
 3279SOL    HW110169   3.527   1.708   5.896
 3279SOL    HW210170   3.417   1.638   5.798
 3280SOL     OW10171   2.669   0.605   7.051
 3280SOL    HW110172   2.622   0.602   7.140
 3280SOL    HW210173   2.618   0.550   6.985
 3281SOL     OW10174   3.256   0.469   7.260
 3281SOL    HW110175   3.236   0.512   7.348
 3281SOL    HW210176   3.334   0.407   7.269
 3282SOL     OW10177   2.835   0.890   7.158
 3282SOL    HW110178   2.881   0.806   7.129
 3282SOL    HW210179   2.779   0.924   7.083
 3283SOL     OW10180   2.853   0.410   6.828
 3283SOL    HW110181   2.776   0.444   6.882
 3283SOL    HW210182   2.819   0.359   6.749
 3284SOL     OW10183   2.903   0.701   6.015
 3284SOL    HW110184   2.929   0.697   6.111
 3284SOL    HW210185   2.818   0.650   6.001
 3285SOL     OW10186   1.938   0.811   6.375
 3285SOL    HW110187   2.037   0.799   6.384
 3285SOL    HW210188   1.914   0.906   6.396
 3286SOL     OW10189   1.992   1.821   7.157
 3286SOL    HW110190   1.982   1.806   7.256
 3286SOL    HW210191   1.906   1.857   7.121
 3287SOL     OW10192   2.727   0.348   5.781
 3287SOL    HW110193   2.786   0.411   5.732
 3287SOL    HW210194   2.746   0.254   5.752
 3288SOL     OW10195   3.581   0.585   7.417
 3288SOL    HW110196   3.555   0.674   7.381
 3288SOL    HW210197   3.579   0.517   7.344
 3289SOL     OW10198   3.224   1.144   6.131
 3289SOL    HW110199   3.307   1.115   6.083
 3289SOL    HW210200   3.175   1.211   6.075
 3290SOL     OW10201   2.412   0.196   6.471
 3290SOL    HW110202   2.407   0.191   6.571
 3290SOL    HW210203   2.414   0.292   6.442
 3291SOL     OW10204   2.870   1.456   6.063
 3291SOL    HW110205   2.824   1.528   6.011
 3291SOL    HW210206   2.866   1.476   6.161
 3292SOL     OW10207   2.213   1.801   6.439
 3292SOL    HW110208   2.263   1.715   6.445
 3292SOL    HW210209   2.278   1.878   6.436
 3293SOL     OW10210   3.657   1.066   6.459
 3293SOL    HW110211   3.595   1.051   6.383
 3293SOL    HW210212   3.605   1.077   6.544
 3294SOL     OW10213   3.089   1.550   7.092
 3294SOL    HW110214   3.095   1.473   7.156
 3294SOL    HW210215   3.037   1.524   7.012
 3295SOL     OW10216   2.183   0.943   5.828
 3295SOL    HW110217   2.265   0.982   5.786
 3295SOL    HW210218   2.156   0.861   5.779
 3296SOL     OW10219   3.320   0.735   6.314
 3296SOL    HW110220   3.315   0.670   6.389
 3296SOL    HW210221   3.400   0.794   6.327
 3297SOL     OW10222   2.323   1.266   7.313
 3297SOL    HW110223   2.273   1.267   7.227
 3297SOL    HW210224   2.260   1.248   7.389
 3298SOL     OW10225   2.973   1.776   5.823
 3298SOL    HW110226   2.913   1.714   5.873
 3298SOL    HW210227   3.004   1.732   5.738
 3299SOL     OW10228   2.064   0.285   7.084
 3299SOL    HW110229   1.984   0.345   7.071
 3299SOL    HW210230   2.054   0.236   7.170
 3300SOL     OW10231   3.494   1.377   5.667
 3300SOL    HW110232   3.462   1.471   5.657
 3300SOL    HW210233   3.418   1.314   5.655
 3301SOL     OW10234   2.326   1.743   5.909
 3301SOL    HW110235   2.359   1.782   5.995
 3301SOL    HW210236   2.402   1.736   5.844
 3302SOL     OW10237   3.262   0.107   6.012
 3302SOL    HW110238   3.238   0.070   5.922
 3302SOL    HW210239   3.361   0.123   6.016
 3303SOL     OW10240   2.111   1.785   6.827
 3303SOL    HW110241   2.168   1.720   6.877
 3303SOL    HW210242   2.095   1.752   6.734
 3304SOL     OW10243   2.802   1.698   6.490
 3304SOL    HW110244   2.882   1.641   6.511
 3304SOL    HW210245   2.753   1.658   6.413
 3305SOL     OW10246   2.244   0.700   6.066
 3305SOL    HW110247   2.289   0.610   6.063
 3305SOL    HW210248   2.150   0.689   6.099
 3306SOL     OW10249   3.409   0.222   7.315
 3306SOL    HW110250   3.404   0.259   7.407
 3306SOL    HW210251   3.337   0.153   7.303
 3307SOL     OW10252   2.476   0.122   5.703
 3307SOL    HW110253   2.574   0.100   5.710
 3307SOL    HW210254   2.445   0.105   5.610
 3308SOL     OW10255   2.643   0.264   7.335
 3308SOL    HW110256   2.710   0.203   7.378
 3308SOL    HW210257   2.570   0.283   7.400
 3309SOL     OW10258   2.750   1.514   6.781
 3309SOL    HW110259   2.727   1.489   6.687
 3309SOL    HW210260   2.811   1.445   6.820
 3310SOL     OW10261   3.213   0.590   7.019
 3310SOL    HW110262   3.241   0.547   7.104
 3310SOL    HW210263   3.238   0.686   7.020
 3311SOL     OW10264   2.665   1.402   6.510
 3311SOL    HW110265   2.755   1.416   6.468
 3311SOL    HW210266   2.594   1.404   6.439
 3312SOL     OW10267   2.784   0.503   6.485
 3312SOL    HW110268   2.759   0.494   6.389
 3312SOL    HW210269   2.832   0.421   6.516
 3313SOL     OW10270   2.401   0.064   6.098
 3313SOL    HW110271   2.320   0.065   6.156
 3313SOL    HW210272   2.404   0.147   6.043
 3314SOL     OW10273   3.296   1.188   5.627
 3314SOL    HW110274   3.328   1.112   5.684
 3314SOL    HW210275   3.204   1.215   5.657
 3315SOL     OW10276   2.159   0.035   5.757
 3315SOL    HW110277   2.208   0.119   5.736
 3315SOL    HW210278   2.221  -0.030   5.802
 3316SOL     OW10279   2.797   0.236   6.066
 3316SOL    HW110280   2.749   0.277   5.988
 3316SOL    HW210281   2.896   0.234   6.047
 3317SOL     OW10282   2.938   0.683   7.050
 3317SOL    HW110283   2.858   0.622   7.053
 3317SOL    HW210284   3.019   0.630   7.026
 3318SOL     OW10285   3.089   1.570   6.379
 3318SOL    HW110286   3.110   1.644   6.314
 3318SOL    HW210287   3.157   1.570   6.452
 3319SOL     OW10288   2.321   1.152   6.327
 3319SOL    HW110289   2.250   1.125   6.392
 3319SOL    HW210290   2.295   1.124   6.234
 3320SOL     OW10291   3.133   1.797   6.177
 3320SOL    HW110292   3.177   1.861   6.113
 3320SOL    HW210293   3.083   1.849   6.247
 3321SOL     OW10294   2.894   0.549   5.602
 3321SOL    HW110295   2.853   0.631   5.563
 3321SOL    HW210296   2.958   0.575   5.675
 3322SOL     OW10297   1.940   0.556   6.972
 3322SOL    HW110298   2.032   0.555   6.931
 3322SOL    HW210299   1.934   0.630   7.039
 3323SOL     OW10300   2.423   0.222   6.733
 3323SOL    HW110301   2.461   0.138   6.770
 3323SOL    HW210302   2.335   0.241   6.777
 3324SOL     OW10303   2.728   0.454   6.228
 3324SOL    HW110304   2.696   0.526   6.166
 3324SOL    HW210305   2.752   0.373   6.175
 3325SOL     OW10306   2.879   0.039   6.339
 3325SOL    HW110307   2.807   0.044   6.270
 3325SOL    HW210308   2.855  -0.030   6.408
 3326SOL     OW10309   3.291   1.173   6.453
 3326SOL    HW110310   3.236   1.089   6.446
 3326SOL    HW210311   3.317   1.202   6.361
 3327SOL     OW10312   3.328   0.590   6.578
 3327SOL    HW110313   3.298   0.495   6.585
 3327SOL    HW210314   3.401   0.606   6.644
 3328SOL     OW10315   3.719   0.833   5.963
 3328SOL    HW110316   3.761   0.769   6.027
 3328SOL    HW210317   3.681   0.782   5.885
 3329SOL     OW10318   2.350   1.385   5.760
 3329SOL    HW110319   2.263   1.370   5.807
 3329SOL    HW210320   2.333   1.411   5.665
 3330SOL     OW10321   3.526   1.280   6.243
 3330SOL    HW110322   3.625   1.288   6.257
 3330SOL    HW210323   3.481   1.364   6.274
 3331SOL     OW10324   3.252   0.575   5.664
 3331SOL    HW110325   3.198   0.554   5.745
 3331SOL    HW210326   3.343   0.534   5.673
 3332SOL     OW10327   2.389   0.256   5.914
 3332SOL    HW110328   2.416   0.197   5.839
 3332SOL    HW210329   2.389   0.351   5.883
 3333SOL     OW10330   3.616   1.223   7.174
 3333SOL    HW110331   3.707   1.184   7.161
 3333SOL    HW210332   3.624   1.319   7.198
 3334SOL     OW10333   2.926   1.347   6.926
 3334SOL    HW110334   2.846   1.324   6.981
 3334SOL    HW210335   3.009   1.321   6.975
 3335SOL     OW10336   3.454   1.629   7.211
 3335SOL    HW110337   3.481   1.663   7.121
 3335SOL    HW210338   3.533   1.591   7.257
 3336SOL     OW10339   2.973   1.195   6.686
 3336SOL    HW110340   2.933   1.239   6.767
 3336SOL    HW210341   2.932   1.232   6.603
 3337SOL     OW10342   3.500   1.099   6.665
 3337SOL    HW110343   3.505   1.180   6.724
 3337SOL    HW210344   3.414   1.101   6.614
 3338SOL     OW10345   2.777   0.089   6.988
 3338SOL    HW110346   2.802   0.069   6.893
 3338SOL    HW210347   2.849   0.145   7.030
 3339SOL     OW10348   2.842   1.116   7.305
 3339SOL    HW110349   2.743   1.122   7.315
 3339SOL    HW210350   2.865   1.036   7.249
 3340SOL     OW10351   2.567   1.050   5.954
 3340SOL    HW110352   2.553   1.057   6.053
 3340SOL    HW210353   2.651   0.999   5.936
 3341SOL     OW10354   2.272   0.813   6.837
 3341SOL    HW110355   2.358   0.825   6.887
 3341SOL    HW210356   2.230   0.726   6.864
 3342SOL     OW10357   3.136   0.386   6.848
 3342SOL    HW110358   3.157   0.460   6.912
 3342SOL    HW210359   3.047   0.403   6.805
 3343SOL     OW10360   1.926   1.564   6.917
 3343SOL    HW110361   1.880   1.646   6.883
 3343SOL    HW210362   2.024   1.583   6.926
 3344SOL     OW10363   2.229   1.100   6.087
 3344SOL    HW110364   2.222   1.183   6.031
 3344SOL    HW210365   2.233   1.020   6.027
 3345SOL     OW10366   2.428   0.537   6.451
 3345SOL    HW110367   2.440   0.603   6.377
 3345SOL    HW210368   2.474   0.571   6.534
 3346SOL     OW10369   3.114   1.348   5.974
 3346SOL    HW110370   3.164   1.425   6.014
 3346SOL    HW210371   3.019   1.350   6.006
 3347SOL     OW10372   3.134   1.445   6.728
 3347SOL    HW110373   3.181   1.458   6.815
 3347SOL    HW210374   3.068   1.371   6.737
 3348SOL     OW10375   3.444   0.639   6.058
 3348SOL    HW110376   3.413   0.700   6.131
 3348SOL    HW210377   3.494   0.691   5.989
 3349SOL     OW10378   2.216   1.510   6.915
 3349SOL    HW110379   2.195   1.466   6.828
 3349SOL    HW210380   2.313   1.536   6.918
 3350SOL     OW10381   2.264   0.751   7.184
 3350SOL    HW110382   2.332   0.806   7.137
 3350SOL    HW210383   2.304   0.663   7.211
 3351SOL     OW10384   3.449   0.779   7.256
 3351SOL    HW110385   3.357   0.817   7.251
 3351SOL    HW210386   3.509   0.826   7.191
 3352SOL     OW10387   2.875   0.105   7.356
 3352SOL    HW110388   2.881   0.190   7.304
 3352SOL    HW210389   2.907   0.029   7.299
 3353SOL     OW10390   2.366   0.050   7.326
 3353SOL    HW110391   2.324  -0.007   7.256
 3353SOL    HW210392   2.300   0.119   7.358
 3354SOL     OW10393   2.435   0.870   6.615
 3354SOL    HW110394   2.479   0.959   6.606
 3354SOL    HW210395   2.372   0.870   6.692
 3355SOL     OW10396   3.222   0.862   6.631
 3355SOL    HW110397   3.147   0.862   6.565
 3355SOL    HW210398   3.259   0.770   6.640
 3356SOL     OW10399   3.071   0.525   5.861
 3356SOL    HW110400   3.084   0.441   5.915
 3356SOL    HW210401   3.042   0.599   5.921
 3357SOL     OW10402   2.169   0.213   6.817
 3357SOL    HW110403   2.146   0.250   6.907
 3357SOL    HW210404   2.139   0.118   6.811
 3358SOL     OW10405   1.899   1.310   6.868
 3358SOL    HW110406   1.952   1.261   6.936
 3358SOL    HW210407   1.921   1.408   6.873
 3359SOL     OW10408   2.594   0.634   6.650
 3359SOL    HW110409   2.653   0.608   6.574
 3359SOL    HW210410   2.566   0.730   6.639
 3360SOL     OW10411   3.590   0.935   7.440
 3360SOL    HW110412   3.544   0.928   7.351
 3360SOL    HW210413   3.528   0.979   7.506
 3361SOL     OW10414   2.169   0.063   6.204
 3361SOL    HW110415   2.158   0.157   6.237
 3361SOL    HW210416   2.164   0.000   6.281
 3362SOL     OW10417   3.484   0.367   5.960
 3362SOL    HW110418   3.486   0.291   6.024
 3362SOL    HW210419   3.436   0.444   6.000
 3363SOL     OW10420   2.885   0.766   6.552
 3363SOL    HW110421   2.900   0.787   6.648
 3363SOL    HW210422   2.855   0.671   6.543
 3364SOL     OW10423   2.842   1.573   7.286
 3364SOL    HW110424   2.822   1.617   7.198
 3364SOL    HW210425   2.881   1.482   7.270
 3365SOL     OW10426   3.721   1.518   7.191
 3365SOL    HW110427   3.735   1.545   7.096
 3365SOL    HW210428   3.804   1.540   7.244
 3366SOL     OW10429   2.212   0.898   7.390
 3366SOL    HW110430   2.288   0.942   7.438
 3366SOL    HW210431   2.247   0.851   7.308
 3367SOL     OW10432   3.402   0.274   5.711
 3367SOL    HW110433   3.341   0.199   5.734
 3367SOL    HW210434   3.424   0.326   5.794
 3368SOL     OW10435   3.165   0.838   5.628
 3368SOL    HW110436   3.199   0.745   5.643
 3368SOL    HW210437   3.183   0.865   5.533
 3369SOL     OW10438   2.930   1.333   6.435
 3369SOL    HW110439   2.937   1.249   6.380
 3369SOL    HW210440   2.992   1.402   6.399
 3370SOL     OW10441   2.181   0.810   6.535
 3370SOL    HW110442   2.274   0.846   6.540
 3370SOL    HW210443   2.175   0.725   6.587
 3371SOL     OW10444   2.201   0.509   6.592
 3371SOL    HW110445   2.149   0.426   6.575
 3371SOL    HW210446   2.278   0.514   6.528
 3372SOL     OW10447   3.000   0.380   7.264
 3372SOL    HW110448   2.955   0.443   7.328
 3372SOL    HW210449   3.093   0.411   7.247
 3373SOL     OW10450   3.022   0.207   7.063
 3373SOL    HW110451   3.022   0.271   7.140
 3373SOL    HW210452   3.050   0.255   6.980
 3374SOL     OW10453   1.870   1.326   5.786
 3374SOL    HW110454   1.777   1.347   5.755
 3374SOL    HW210455   1.880   1.227   5.799
 3375SOL     OW10456   1.950   1.801   6.513
 3375SOL    HW110457   1.908   1.715   6.486
 3375SOL    HW210458   2.044   1.804   6.479
 3376SOL     OW10459   2.366   1.568   6.496
 3376SOL    HW110460   2.432   1.642   6.505
 3376SOL    HW210461   2.410   1.489   6.454
 3377SOL     OW10462   2.864   0.796   6.824
 3377SOL    HW110463   2.905   0.764   6.910
 3377SOL    HW210464   2.768   0.769   6.821
 3378SOL     OW10465   1.902   0.544   6.700
 3378SOL    HW110466   1.987   0.511   6.659
 3378SOL    HW210467   1.915   0.559   6.798
 3379SOL     OW10468   2.051   0.520   7.308
 3379SOL    HW110469   2.110   0.480   7.238
 3379SOL    HW210470   1.993   0.591   7.267
 3380SOL     OW10471   3.231   0.950   7.246
 3380SOL    HW110472   3.270   1.039   7.266
 3380SOL    HW210473   3.241   0.930   7.149
 3381SOL     OW10474   2.677   0.572   5.911
 3381SOL    HW110475   2.684   0.483   5.865
 3381SOL    HW210476   2.583   0.606   5.903
 3382SOL     OW10477   3.519   0.604   6.792
 3382SOL    HW110478   3.481   0.535   6.854
 3382SOL    HW210479   3.601   0.568   6.748
 3383SOL     OW10480   2.114   1.564   7.330
 3383SOL    HW110481   2.084   1.621   7.406
 3383SOL    HW210482   2.107   1.467   7.356
 3384SOL     OW10483   2.533   0.464   6.855
 3384SOL    HW110484   2.499   0.375   6.825
 3384SOL    HW210485   2.559   0.518   6.775
 3385SOL     OW10486   2.792   1.678   7.051
 3385SOL    HW110487   2.768   1.660   6.956
 3385SOL    HW210488   2.822   1.772   7.061
 3386SOL     OW10489   2.335   0.500   5.777
 3386SOL    HW110490   2.396   0.580   5.781
 3386SOL    HW210491   2.240   0.531   5.784
 3387SOL     OW10492   2.021   1.137   7.052
 3387SOL    HW110493   2.043   1.076   7.128
 3387SOL    HW210494   2.031   1.088   6.966
 3388SOL     OW10495   3.209   1.059   6.820
 3388SOL    HW110496   3.233   0.996   6.746
 3388SOL    HW210497   3.119   1.099   6.802
 3389SOL     OW10498   3.164   0.855   5.895
 3389SOL    HW110499   3.078   0.824   5.937
 3389SOL    HW210500   3.160   0.841   5.796
 3390SOL     OW10501   3.621   1.747   6.740
 3390SOL    HW110502   3.682   1.777   6.667
 3390SOL    HW210503   3.583   1.658   6.718
 3391SOL     OW10504   3.114   1.731   6.714
 3391SOL    HW110505   3.198   1.736   6.660
 3391SOL    HW210506   3.091   1.635   6.732
 3392SOL     OW10507   1.945   1.258   6.608
 3392SOL    HW110508   1.940   1.257   6.708
 3392SOL    HW210509   1.862   1.217   6.570
 3393SOL     OW10510   2.550   1.662   7.302
 3393SOL    HW110511   2.494   1.743   7.311
 3393SOL    HW210512   2.602   1.666   7.216
 3394SOL     OW10513   3.588   0.135   6.109
 3394SOL    HW110514   3.661   0.118   6.042
 3394SOL    HW210515   3.557   0.048   6.147
 3395SOL     OW10516   3.250   1.573   6.063
 3395SOL    HW110517   3.317   1.585   5.989
 3395SOL    HW210518   3.210   1.662   6.086
 3396SOL     OW10519   1.992   1.794   7.437
 3396SOL    HW110520   1.951   1.720   7.490
 3396SOL    HW210521   2.056   1.845   7.495
 3397SOL     OW10522   3.142   0.927   6.258
 3397SOL    HW110523   3.202   0.846   6.260
 3397SOL    HW210524   3.182   0.996   6.198
 3398SOL     OW10525   2.692   1.273   7.008
 3398SOL    HW110526   2.687   1.306   7.103
 3398SOL    HW210527   2.606   1.292   6.962
 3399SOL     OW10528   2.534   1.616   5.740
 3399SOL    HW110529   2.543   1.626   5.641
 3399SOL    HW210530   2.494   1.527   5.761
 3400SOL     OW10531   3.512   1.720   6.980
 3400SOL    HW110532   3.565   1.730   6.896
 3400SOL    HW210533   3.485   1.810   7.014
 3401SOL     OW10534   3.703   0.175   6.549
 3401SOL    HW110535   3.742   0.090   6.513
 3401SOL    HW210536   3.605   0.177   6.530
 3402SOL     OW10537   2.125   0.326   6.306
 3402SOL    HW110538   2.046   0.377   6.272
 3402SOL    HW210539   2.116   0.311   6.404
 3403SOL     OW10540   3.056   1.612   5.617
 3403SOL    HW110541   3.062   1.519   5.654
 3403SOL    HW210542   2.997   1.612   5.537
 3404SOL     OW10543   2.684   1.002   6.958
 3404SOL    HW110544   2.724   1.001   6.866
 3404SOL    HW210545   2.694   1.094   6.998
 3405SOL     OW10546   2.778   0.910   5.877
 3405SOL    HW110547   2.841   0.948   5.809
 3405SOL    HW210548   2.818   0.827   5.916
 3406SOL     OW10549   3.366   1.607   5.630
 3406SOL    HW110550   3.274   1.644   5.637
 3406SOL    HW210551   3.404   1.627   5.540
 3407SOL     OW10552   2.234   1.288   7.076
 3407SOL    HW110553   2.221   1.381   7.042
 3407SOL    HW210554   2.150   1.236   7.063
 3408SOL     OW10555   3.476   1.292   6.875
 3408SOL    HW110556   3.536   1.295   6.955
 3408SOL    HW210557   3.401   1.356   6.888
 3409SOL     OW10558   2.901   1.098   6.282
 3409SOL    HW110559   2.831   1.051   6.336
 3409SOL    HW210560   2.960   1.030   6.239
 3410SOL     OW10561   2.876   0.236   6.557
 3410SOL    HW110562   2.868   0.200   6.464
 3410SOL    HW210563   2.874   0.160   6.622
 3411SOL     OW10564   2.452   1.487   6.077
 3411SOL    HW110565   2.494   1.429   6.007
 3411SOL    HW210566   2.408   1.566   6.033
 3412SOL     OW10567   3.571   0.385   6.967
 3412SOL    HW110568   3.644   0.454   6.971
 3412SOL    HW210569   3.599   0.310   6.908
 3413SOL     OW10570   2.117   1.348   5.876
 3413SOL    HW110571   2.021   1.349   5.849
 3413SOL    HW210572   2.129   1.401   5.960
 3414SOL     OW10573   1.967   1.013   7.312
 3414SOL    HW110574   1.890   0.980   7.366
 3414SOL    HW210575   2.052   0.983   7.354
 3415SOL     OW10576   2.534   0.203   7.075
 3415SOL    HW110577   2.624   0.187   7.035
 3415SOL    HW210578   2.542   0.208   7.174
 3416SOL     OW10579   1.937   0.345   5.619
 3416SOL    HW110580   1.845   0.317   5.590
 3416SOL    HW210581   1.968   0.422   5.563
 3417SOL     OW10582   3.302   0.856   6.984
 3417SOL    HW110583   3.245   0.908   6.921
 3417SOL    HW210584   3.398   0.868   6.960
 3418SOL     OW10585   1.934   0.166   5.904
 3418SOL    HW110586   1.917   0.249   5.850
 3418SOL    HW210587   2.024   0.129   5.882
 3419SOL     OW10588   3.045   1.335   5.705
 3419SOL    HW110589   2.946   1.324   5.707
 3419SOL    HW210590   3.079   1.350   5.798
 3420SOL     OW10591   2.475   0.842   7.017
 3420SOL    HW110592   2.531   0.923   7.000
 3420SOL    HW210593   2.534   0.762   7.020
 3421SOL     OW10594   3.355   1.767   6.545
 3421SOL    HW110595   3.388   1.831   6.476
 3421SOL    HW210596   3.421   1.761   6.620
 3422SOL     OW10597   2.578   0.565   7.294
 3422SOL    HW110598   2.597   0.630   7.368
 3422SOL    HW210599   2.638   0.485   7.303
 3423SOL     OW10600   3.312   1.220   7.219
 3423SOL    HW110601   3.303   1.210   7.318
 3423SOL    HW210602   3.408   1.213   7.193
 3424SOL     OW10603   2.252   1.741   7.146
 3424SOL    HW110604   2.161   1.782   7.144
 3424SOL    HW210605   2.245   1.647   7.178
 3425SOL     OW10606   3.536   0.883   6.840
 3425SOL    HW110607   3.509   0.794   6.803
 3425SOL    HW210608   3.537   0.951   6.767
 3426SOL     OW10609   3.087   0.325   6.035
 3426SOL    HW110610   3.152   0.251   6.024
 3426SOL    HW210611   3.107   0.375   6.119
 3427SOL     OW10612   2.456   0.745   6.238
 3427SOL    HW110613   2.506   0.830   6.219
 3427SOL    HW210614   2.368   0.747   6.190
 3428SOL     OW10615   3.639   0.342   7.228
 3428SOL    HW110616   3.622   0.373   7.134
 3428SOL    HW210617   3.555   0.305   7.266
 3429SOL     OW10618   3.592   0.934   7.103
 3429SOL    HW110619   3.630   1.025   7.118
 3429SOL    HW210620   3.584   0.917   7.004
 3430SOL     OW10621   2.721   1.374   5.602
 3430SOL    HW110622   2.675   1.389   5.690
 3430SOL    HW210623   2.765   1.459   5.572
 3431SOL     OW10624   2.523   1.790   6.539
 3431SOL    HW110625   2.477   1.878   6.526
 3431SOL    HW210626   2.622   1.802   6.532
 3432SOL     OW10627   2.721   0.956   6.447
 3432SOL    HW110628   2.775   0.887   6.495
 3432SOL    HW210629   2.689   1.025   6.513
 3433SOL     OW10630   2.945   0.984   5.673
 3433SOL    HW110631   2.922   1.037   5.591
 3433SOL    HW210632   3.026   0.928   5.654
 3434SOL     OW10633   3.723   1.569   6.437
 3434SOL    HW110634   3.652   1.557   6.367
 3434SOL    HW210635   3.724   1.490   6.497
 3435SOL     OW10636   2.083   1.314   7.430
 3435SOL    HW110637   2.018   1.241   7.409
 3435SOL    HW210638   2.087   1.328   7.528
 3436SOL     OW10639   1.941   1.240   6.239
 3436SOL    HW110640   1.940   1.193   6.327
 3436SOL    HW210641   2.023   1.212   6.188
 3437SOL     OW10642   2.534   1.391   7.210
 3437SOL    HW110643   2.456   1.341   7.248
 3437SOL    HW210644   2.531   1.486   7.241
 3438SOL     OW10645   3.686   0.192   6.813
 3438SOL    HW110646   3.682   0.102   6.857
 3438SOL    HW210647   3.689   0.181   6.714
 3439SOL     OW10648   2.290   0.424   6.106
 3439SOL    HW110649   2.320   0.352   6.044
 3439SOL    HW210650   2.251   0.384   6.189
 3440SOL     OW10651   3.567   1.487   6.690
 3440SOL    HW110652   3.474   1.462   6.663
 3440SOL    HW210653   3.593   1.437   6.772
 3441SOL     OW10654   2.179   0.547   6.866
 3441SOL    HW110655   2.217   0.488   6.938
 3441SOL    HW210656   2.219   0.521   6.778
 3442SOL     OW10657   2.674   1.586   6.273
 3442SOL    HW110658   2.706   1.596   6.179
 3442SOL    HW210659   2.595   1.524   6.275
 3443SOL     OW10660   3.286   0.214   6.698
 3443SOL    HW110661   3.338   0.149   6.753
 3443SOL    HW210662   3.237   0.277   6.759
 3444SOL     OW10663   2.863   0.034   6.740
 3444SOL    HW110664   2.800  -0.038   6.709
 3444SOL    HW210665   2.956  -0.002   6.740
 3445SOL     OW10666   2.632   1.330   5.887
 3445SOL    HW110667   2.586   1.243   5.904
 3445SOL    HW210668   2.723   1.327   5.928
 3446SOL     OW10669   2.480   1.567   6.870
 3446SOL    HW110670   2.475   1.649   6.927
 3446SOL    HW210671   2.569   1.564   6.825
 3447SOL     OW10672   3.214   0.052   5.754
 3447SOL    HW110673   3.249   0.011   5.670
 3447SOL    HW210674   3.124   0.014   5.774
 3448SOL     OW10675   3.162   0.453   6.277
 3448SOL    HW110676   3.103   0.533   6.281
 3448SOL    HW210677   3.177   0.418   6.370
 3449SOL     OW10678   3.455   0.221   6.468
 3449SOL    HW110679   3.371   0.220   6.522
 3449SOL    HW210680   3.457   0.304   6.412
 3450SOL     OW10681   1.901   1.077   5.886
 3450SOL    HW110682   2.000   1.066   5.877
 3450SOL    HW210683   1.861   0.991   5.918
 3451SOL     OW10684   2.737   1.646   5.923
 3451SOL    HW110685   2.660   1.611   5.869
 3451SOL    HW210686   2.705   1.717   5.985
 3452SOL     OW10687   2.092   0.628   7.561
 3452SOL    HW110688   1.999   0.626   7.598
 3452SOL    HW210689   2.093   0.589   7.469
 3453SOL     OW10690   3.617   0.607   7.679
 3453SOL    HW110691   3.605   0.594   7.580
 3453SOL    HW210692   3.587   0.526   7.728
 3454SOL     OW10693   2.093   1.713   7.931
 3454SOL    HW110694   2.127   1.790   7.985
 3454SOL    HW210695   2.137   1.713   7.841
 3455SOL     OW10696   2.092   1.434   7.986
 3455SOL    HW110697   2.066   1.530   7.986
 3455SOL    HW210698   2.021   1.380   8.031
 3456SOL     OW10699   2.468   0.964   7.571
 3456SOL    HW110700   2.475   1.048   7.517
 3456SOL    HW210701   2.514   0.977   7.659
 3457SOL     OW10702   3.704   1.767   7.807
 3457SOL    HW110703   3.758   1.738   7.887
 3457SOL    HW210704   3.734   1.857   7.778
 3458SOL     OW10705   1.889   1.596   7.565
 3458SOL    HW110706   1.870   1.500   7.586
 3458SOL    HW210707   1.856   1.654   7.640
 3459SOL     OW10708   3.551   0.922   8.060
 3459SOL    HW110709   3.646   0.893   8.068
 3459SOL    HW210710   3.543   0.987   7.985
 3460SOL     OW10711   3.503   1.108   7.880
 3460SOL    HW110712   3.589   1.110   7.828
 3460SOL    HW210713   3.517   1.155   7.968
 3461SOL     OW10714   2.671   0.004   7.950
 3461SOL    HW110715   2.711   0.095   7.941
 3461SOL    HW210716   2.571   0.012   7.956
 3462SOL     OW10717   3.387   0.999   7.638
 3462SOL    HW110718   3.324   0.923   7.651
 3462SOL    HW210719   3.435   1.017   7.724
 3463SOL     OW10720   2.460   0.729   7.718
 3463SOL    HW110721   2.484   0.798   7.650
 3463SOL    HW210722   2.382   0.762   7.772
 3464SOL     OW10723   3.438   1.662   7.755
 3464SOL    HW110724   3.527   1.708   7.758
 3464SOL    HW210725   3.417   1.638   7.660
 3465SOL     OW10726   1.938   0.811   8.237
 3465SOL    HW110727   2.037   0.799   8.246
 3465SOL    HW210728   1.914   0.906   8.258
 3466SOL     OW10729   2.727   0.348   7.643
 3466SOL    HW110730   2.786   0.411   7.594
 3466SOL    HW210731   2.746   0.254   7.614
 3467SOL     OW10732   2.183   0.943   7.690
 3467SOL    HW110733   2.265   0.982   7.648
 3467SOL    HW210734   2.156   0.861   7.641
 3468SOL     OW10735   2.973   1.776   7.685
 3468SOL    HW110736   2.913   1.714   7.735
 3468SOL    HW210737   3.004   1.732   7.600
 3469SOL     OW10738   3.494   1.377   7.529
 3469SOL    HW110739   3.462   1.471   7.519
 3469SOL    HW210740   3.418   1.314   7.517
 3470SOL     OW10741   2.326   1.743   7.771
 3470SOL    HW110742   2.359   1.782   7.857
 3470SOL    HW210743   2.402   1.736   7.706
 3471SOL     OW10744   3.262   0.107   7.874
 3471SOL    HW110745   3.238   0.070   7.784
 3471SOL    HW210746   3.361   0.123   7.878
 3472SOL     OW10747   2.244   0.700   7.928
 3472SOL    HW110748   2.289   0.610   7.925
 3472SOL    HW210749   2.150   0.689   7.961
 3473SOL     OW10750   2.476   0.122   7.565
 3473SOL    HW110751   2.574   0.100   7.572
 3473SOL    HW210752   2.445   0.105   7.472
 3474SOL     OW10753   2.401   0.064   7.960
 3474SOL    HW110754   2.320   0.065   8.018
 3474SOL    HW210755   2.404   0.147   7.905
 3475SOL     OW10756   3.296   1.188   7.489
 3475SOL    HW110757   3.328   1.112   7.546
 3475SOL    HW210758   3.204   1.215   7.519
 3476SOL     OW10759   2.159   0.035   7.619
 3476SOL    HW110760   2.208   0.119   7.598
 3476SOL    HW210761   2.221  -0.030   7.664
 3477SOL     OW10762   2.797   0.236   7.928
 3477SOL    HW110763   2.749   0.277   7.850
 3477SOL    HW210764   2.896   0.234   7.909
 3478SOL     OW10765   2.321   1.152   8.189
 3478SOL    HW110766   2.250   1.125   8.254
 3478SOL    HW210767   2.295   1.124   8.096
 3479SOL     OW10768   3.133   1.797   8.039
 3479SOL    HW110769   3.177   1.861   7.975
 3479SOL    HW210770   3.083   1.849   8.109
 3480SOL     OW10771   2.894   0.549   7.464
 3480SOL    HW110772   2.853   0.631   7.425
 3480SOL    HW210773   2.958   0.575   7.537
 3481SOL     OW10774   3.719   0.833   7.825
 3481SOL    HW110775   3.761   0.769   7.889
 3481SOL    HW210776   3.681   0.782   7.747
 3482SOL     OW10777   2.350   1.385   7.622
 3482SOL    HW110778   2.263   1.370   7.669
 3482SOL    HW210779   2.333   1.411   7.527
 3483SOL     OW10780   3.252   0.575   7.526
 3483SOL    HW110781   3.198   0.554   7.607
 3483SOL    HW210782   3.343   0.534   7.535
 3484SOL     OW10783   2.389   0.256   7.776
 3484SOL    HW110784   2.416   0.197   7.701
 3484SOL    HW210785   2.389   0.351   7.745
 3485SOL     OW10786   2.567   1.050   7.816
 3485SOL    HW110787   2.553   1.057   7.915
 3485SOL    HW210788   2.651   0.999   7.798
 3486SOL     OW10789   2.229   1.100   7.949
 3486SOL    HW110790   2.222   1.183   7.893
 3486SOL    HW210791   2.233   1.020   7.889
 3487SOL     OW10792   3.114   1.348   7.836
 3487SOL    HW110793   3.164   1.425   7.876
 3487SOL    HW210794   3.019   1.350   7.868
 3488SOL     OW10795   3.444   0.639   7.920
 3488SOL    HW110796   3.413   0.700   7.993
 3488SOL    HW210797   3.494   0.691   7.851
 3489SOL     OW10798   3.071   0.525   7.723
 3489SOL    HW110799   3.084   0.441   7.777
 3489SOL    HW210800   3.042   0.599   7.783
 3490SOL     OW10801   3.484   0.367   7.822
 3490SOL    HW110802   3.486   0.291   7.886
 3490SOL    HW210803   3.436   0.444   7.862
 3491SOL     OW10804   3.402   0.274   7.573
 3491SOL    HW110805   3.341   0.199   7.596
 3491SOL    HW210806   3.424   0.326   7.656
 3492SOL     OW10807   3.165   0.838   7.490
 3492SOL    HW110808   3.199   0.745   7.505
 3492SOL    HW210809   3.183   0.865   7.395
 3493SOL     OW10810   1.870   1.326   7.648
 3493SOL    HW110811   1.777   1.347   7.617
 3493SOL    HW210812   1.880   1.227   7.661
 3494SOL     OW10813   2.677   0.572   7.773
 3494SOL    HW110814   2.684   0.483   7.727
 3494SOL    HW210815   2.583   0.606   7.765
 3495SOL     OW10816   2.335   0.500   7.639
 3495SOL    HW110817   2.396   0.580   7.643
 3495SOL    HW210818   2.240   0.531   7.646
 3496SOL     OW10819   3.164   0.855   7.757
 3496SOL    HW110820   3.078   0.824   7.799
 3496SOL    HW210821   3.160   0.841   7.658
 3497SOL     OW10822   3.588   0.135   7.971
 3497SOL    HW110823   3.661   0.118   7.904
 3497SOL    HW210824   3.557   0.048   8.009
 3498SOL     OW10825   3.250   1.573   7.925
 3498SOL    HW110826   3.317   1.585   7.851
 3498SOL    HW210827   3.210   1.662   7.948
 3499SOL     OW10828   2.534   1.616   7.602
 3499SOL    HW110829   2.543   1.626   7.503
 3499SOL    HW210830   2.494   1.527   7.623
 3500SOL     OW10831   3.056   1.612   7.479
 3500SOL    HW110832   3.062   1.519   7.516
 3500SOL    HW210833   2.997   1.612   7.399
 3501SOL     OW10834   2.778   0.910   7.739
 3501SOL    HW110835   2.841   0.948   7.671
 3501SOL    HW210836   2.818   0.827   7.778
 3502SOL     OW10837   3.366   1.607   7.492
 3502SOL    HW110838   3.274   1.644   7.499
 3502SOL    HW210839   3.404   1.627   7.402
 3503SOL     OW10840   2.452   1.487   7.939
 3503SOL    HW110841   2.494   1.429   7.869
 3503SOL    HW210842   2.408   1.566   7.895
 3504SOL     OW10843   2.117   1.348   7.738
 3504SOL    HW110844   2.021   1.349   7.711
 3504SOL    HW210845   2.129   1.401   7.822
 3505SOL     OW10846   1.937   0.345   7.481
 3505SOL    HW110847   1.845   0.317   7.452
 3505SOL    HW210848   1.968   0.422   7.425
 3506SOL     OW10849   1.934   0.166   7.766
 3506SOL    HW110850   1.917   0.249   7.712
 3506SOL    HW210851   2.024   0.129   7.744
 3507SOL     OW10852   3.045   1.335   7.567
 3507SOL    HW110853   2.946   1.324   7.569
 3507SOL    HW210854   3.079   1.350   7.660
 3508SOL     OW10855   3.087   0.325   7.897
 3508SOL    HW110856   3.152   0.251   7.886
 3508SOL    HW210857   3.107   0.375   7.981
 3509SOL     OW10858   2.456   0.745   8.100
 3509SOL    HW110859   2.506   0.830   8.081
 3509SOL    HW210860   2.368   0.747   8.052
 3510SOL     OW10861   2.721   1.374   7.464
 3510SOL    HW110862   2.675   1.389   7.552
 3510SOL    HW210863   2.765   1.459   7.434
 3511SOL     OW10864   2.945   0.984   7.535
 3511SOL    HW110865   2.922   1.037   7.453
 3511SOL    HW210866   3.026   0.928   7.516
 3512SOL     OW10867   2.290   0.424   7.968
 3512SOL    HW110868   2.320   0.352   7.906
 3512SOL    HW210869   2.251   0.384   8.051
 3513SOL     OW10870   2.632   1.330   7.749
 3513SOL    HW110871   2.586   1.243   7.766
 3513SOL    HW210872   2.723   1.327   7.790
 3514SOL     OW10873   3.214   0.052   7.616
 3514SOL    HW110874   3.249   0.011   7.532
 3514SOL    HW210875   3.124   0.014   7.636
 3515SOL     OW10876   1.901   1.077   7.748
 3515SOL    HW110877   2.000   1.066   7.739
 3515SOL    HW210878   1.861   0.991   7.780
 3516SOL     OW10879   2.737   1.646   7.785
 3516SOL    HW110880   2.660   1.611   7.731
 3516SOL    HW210881   2.705   1.717   7.847
 3517SOL     OW10882   2.092   2.490   0.113
 3517SOL    HW110883   1.999   2.488   0.150
 3517SOL    HW210884   2.093   2.451   0.021
 3518SOL     OW10885   2.087   2.137   0.996
 3518SOL    HW110886   2.122   2.120   1.088
 3518SOL    HW210887   1.999   2.092   0.984
 3519SOL     OW10888   1.881   2.230   0.647
 3519SOL    HW110889   1.799   2.273   0.686
 3519SOL    HW210890   1.853   2.157   0.584
 3520SOL     OW10891   2.431   3.137   1.165
 3520SOL    HW110892   2.338   3.130   1.128
 3520SOL    HW210893   2.442   3.226   1.209
 3521SOL     OW10894   3.417   3.373   0.703
 3521SOL    HW110895   3.360   3.357   0.784
 3521SOL    HW210896   3.358   3.383   0.623
 3522SOL     OW10897   2.997   2.565   0.717
 3522SOL    HW110898   3.054   2.643   0.692
 3522SOL    HW210899   2.937   2.591   0.793
 3523SOL     OW10900   3.617   2.469   0.231
 3523SOL    HW110901   3.605   2.456   0.132
 3523SOL    HW210902   3.587   2.388   0.280
 3524SOL     OW10903   2.630   3.006   1.023
 3524SOL    HW110904   2.552   3.023   1.083
 3524SOL    HW210905   2.664   3.093   0.987
 3525SOL     OW10906   2.548   3.023   1.803
 3525SOL    HW110907   2.608   3.102   1.817
 3525SOL    HW210908   2.462   3.054   1.762
 3526SOL     OW10909   2.197   3.297   1.061
 3526SOL    HW110910   2.119   3.266   1.008
 3526SOL    HW210911   2.255   3.355   1.004
 3527SOL     OW10912   3.322   3.367   1.339
 3527SOL    HW110913   3.346   3.461   1.365
 3527SOL    HW210914   3.306   3.313   1.421
 3528SOL     OW10915   2.300   2.254   1.499
 3528SOL    HW110916   2.382   2.198   1.508
 3528SOL    HW210917   2.219   2.196   1.503
 3529SOL     OW10918   3.465   2.309   0.737
 3529SOL    HW110919   3.391   2.355   0.687
 3529SOL    HW210920   3.516   2.377   0.790
 3530SOL     OW10921   2.093   3.575   0.483
 3530SOL    HW110922   2.127   3.652   0.537
 3530SOL    HW210923   2.137   3.575   0.393
 3531SOL     OW10924   2.989   3.203   1.690
 3531SOL    HW110925   3.036   3.203   1.778
 3531SOL    HW210926   2.941   3.116   1.679
 3532SOL     OW10927   2.092   3.296   0.538
 3532SOL    HW110928   2.066   3.392   0.538
 3532SOL    HW210929   2.021   3.242   0.583
 3533SOL     OW10930   2.102   2.953   0.886
 3533SOL    HW110931   2.116   2.869   0.938
 3533SOL    HW210932   2.047   3.017   0.941
 3534SOL     OW10933   2.482   3.648   1.439
 3534SOL    HW110934   2.390   3.631   1.474
 3534SOL    HW210935   2.510   3.740   1.465
 3535SOL     OW10936   2.468   2.826   0.123
 3535SOL    HW110937   2.475   2.910   0.069
 3535SOL    HW210938   2.514   2.839   0.211
 3536SOL     OW10939   3.456   1.976   1.480
 3536SOL    HW110940   3.438   2.043   1.408
 3536SOL    HW210941   3.453   2.022   1.569
 3537SOL     OW10942   1.984   2.505   0.563
 3537SOL    HW110943   1.939   2.417   0.580
 3537SOL    HW210944   1.983   2.559   0.647
 3538SOL     OW10945   3.704   3.629   0.359
 3538SOL    HW110946   3.758   3.600   0.439
 3538SOL    HW210947   3.734   3.719   0.330
 3539SOL     OW10948   1.889   3.458   0.117
 3539SOL    HW110949   1.870   3.362   0.138
 3539SOL    HW210950   1.856   3.516   0.192
 3540SOL     OW10951   3.551   2.784   0.612
 3540SOL    HW110952   3.646   2.755   0.620
 3540SOL    HW210953   3.543   2.849   0.537
 3541SOL     OW10954   3.503   2.970   0.432
 3541SOL    HW110955   3.589   2.972   0.380
 3541SOL    HW210956   3.517   3.017   0.520
 3542SOL     OW10957   1.975   2.599   1.597
 3542SOL    HW110958   2.063   2.586   1.642
 3542SOL    HW210959   1.962   2.696   1.575
 3543SOL     OW10960   2.475   3.227   0.726
 3543SOL    HW110961   2.426   3.140   0.735
 3543SOL    HW210962   2.452   3.270   0.639
 3544SOL     OW10963   3.155   3.090   1.423
 3544SOL    HW110964   3.192   3.017   1.365
 3544SOL    HW210965   3.207   3.095   1.508
 3545SOL     OW10966   2.671   1.866   0.502
 3545SOL    HW110967   2.711   1.957   0.493
 3545SOL    HW210968   2.571   1.874   0.508
 3546SOL     OW10969   2.059   2.838   1.264
 3546SOL    HW110970   2.148   2.793   1.250
 3546SOL    HW210971   1.986   2.773   1.245
 3547SOL     OW10972   3.387   2.861   0.190
 3547SOL    HW110973   3.324   2.785   0.203
 3547SOL    HW210974   3.435   2.879   0.276
 3548SOL     OW10975   3.049   3.654   1.616
 3548SOL    HW110976   3.073   3.714   1.540
 3548SOL    HW210977   3.056   3.559   1.586
 3549SOL     OW10978   2.179   2.113   1.801
 3549SOL    HW110979   2.250   2.184   1.807
 3549SOL    HW210980   2.091   2.152   1.829
 3550SOL     OW10981   3.328   3.279   0.953
 3550SOL    HW110982   3.269   3.285   1.033
 3550SOL    HW210983   3.313   3.191   0.907
 3551SOL     OW10984   3.529   3.576   0.572
 3551SOL    HW110985   3.488   3.553   0.484
 3551SOL    HW210986   3.511   3.502   0.637
 3552SOL     OW10987   3.143   2.207   0.944
 3552SOL    HW110988   3.057   2.157   0.931
 3552SOL    HW210989   3.205   2.153   1.000
 3553SOL     OW10990   3.438   3.524   0.307
 3553SOL    HW110991   3.527   3.570   0.310
 3553SOL    HW210992   3.417   3.500   0.212
 3554SOL     OW10993   3.256   2.331   1.674
 3554SOL    HW110994   3.236   2.374   1.762
 3554SOL    HW210995   3.334   2.269   1.683
 3555SOL     OW10996   2.853   2.272   1.242
 3555SOL    HW110997   2.776   2.306   1.296
 3555SOL    HW210998   2.819   2.221   1.163
 3556SOL     OW10999   1.938   2.673   0.789
 3556SOL    HW111000   2.037   2.661   0.798
 3556SOL    HW211001   1.914   2.768   0.810
 3557SOL     OW11002   1.992   3.683   1.571
 3557SOL    HW111003   1.982   3.668   1.670
 3557SOL    HW211004   1.906   3.719   1.535
 3558SOL     OW11005   2.727   2.210   0.195
 3558SOL    HW111006   2.786   2.273   0.146
 3558SOL    HW211007   2.746   2.116   0.166
 3559SOL     OW11008   3.581   2.447   1.831
 3559SOL    HW111009   3.555   2.536   1.795
 3559SOL    HW211010   3.579   2.379   1.758
 3560SOL     OW11011   3.224   3.006   0.545
 3560SOL    HW111012   3.307   2.977   0.497
 3560SOL    HW211013   3.175   3.073   0.489
 3561SOL     OW11014   2.412   2.058   0.885
 3561SOL    HW111015   2.407   2.053   0.985
 3561SOL    HW211016   2.414   2.154   0.856
 3562SOL     OW11017   2.870   3.318   0.477
 3562SOL    HW111018   2.824   3.390   0.425
 3562SOL    HW211019   2.866   3.338   0.575
 3563SOL     OW11020   2.213   3.663   0.853
 3563SOL    HW111021   2.263   3.577   0.859
 3563SOL    HW211022   2.278   3.740   0.850
 3564SOL     OW11023   3.657   2.928   0.873
 3564SOL    HW111024   3.595   2.913   0.797
 3564SOL    HW211025   3.605   2.939   0.958
 3565SOL     OW11026   3.089   3.412   1.506
 3565SOL    HW111027   3.095   3.335   1.570
 3565SOL    HW211028   3.037   3.386   1.426
 3566SOL     OW11029   2.183   2.805   0.242
 3566SOL    HW111030   2.265   2.844   0.200
 3566SOL    HW211031   2.156   2.723   0.193
 3567SOL     OW11032   3.320   2.597   0.728
 3567SOL    HW111033   3.315   2.532   0.803
 3567SOL    HW211034   3.400   2.656   0.741
 3568SOL     OW11035   2.323   3.128   1.727
 3568SOL    HW111036   2.273   3.129   1.641
 3568SOL    HW211037   2.260   3.110   1.803
 3569SOL     OW11038   2.973   3.638   0.237
 3569SOL    HW111039   2.913   3.576   0.287
 3569SOL    HW211040   3.004   3.594   0.152
 3570SOL     OW11041   2.064   2.147   1.498
 3570SOL    HW111042   1.984   2.207   1.485
 3570SOL    HW211043   2.054   2.098   1.584
 3571SOL     OW11044   3.494   3.239   0.081
 3571SOL    HW111045   3.462   3.333   0.071
 3571SOL    HW211046   3.418   3.176   0.069
 3572SOL     OW11047   2.326   3.605   0.323
 3572SOL    HW111048   2.359   3.644   0.409
 3572SOL    HW211049   2.402   3.598   0.258
 3573SOL     OW11050   3.262   1.969   0.426
 3573SOL    HW111051   3.238   1.932   0.336
 3573SOL    HW211052   3.361   1.985   0.430
 3574SOL     OW11053   2.111   3.647   1.241
 3574SOL    HW111054   2.168   3.582   1.291
 3574SOL    HW211055   2.095   3.614   1.148
 3575SOL     OW11056   2.802   3.560   0.904
 3575SOL    HW111057   2.882   3.503   0.925
 3575SOL    HW211058   2.753   3.520   0.827
 3576SOL     OW11059   2.244   2.562   0.480
 3576SOL    HW111060   2.289   2.472   0.477
 3576SOL    HW211061   2.150   2.551   0.513
 3577SOL     OW11062   3.409   2.084   1.729
 3577SOL    HW111063   3.404   2.121   1.821
 3577SOL    HW211064   3.337   2.015   1.717
 3578SOL     OW11065   2.476   1.984   0.117
 3578SOL    HW111066   2.574   1.962   0.124
 3578SOL    HW211067   2.445   1.967   0.024
 3579SOL     OW11068   2.643   2.126   1.749
 3579SOL    HW111069   2.710   2.065   1.792
 3579SOL    HW211070   2.570   2.145   1.814
 3580SOL     OW11071   2.750   3.376   1.195
 3580SOL    HW111072   2.727   3.351   1.101
 3580SOL    HW211073   2.811   3.307   1.234
 3581SOL     OW11074   3.213   2.452   1.433
 3581SOL    HW111075   3.241   2.409   1.518
 3581SOL    HW211076   3.238   2.548   1.434
 3582SOL     OW11077   2.665   3.264   0.924
 3582SOL    HW111078   2.755   3.278   0.882
 3582SOL    HW211079   2.594   3.266   0.853
 3583SOL     OW11080   2.784   2.365   0.899
 3583SOL    HW111081   2.759   2.356   0.803
 3583SOL    HW211082   2.832   2.283   0.930
 3584SOL     OW11083   2.401   1.926   0.512
 3584SOL    HW111084   2.320   1.927   0.570
 3584SOL    HW211085   2.404   2.009   0.457
 3585SOL     OW11086   3.296   3.050   0.041
 3585SOL    HW111087   3.328   2.974   0.098
 3585SOL    HW211088   3.204   3.077   0.071
 3586SOL     OW11089   2.159   1.897   0.171
 3586SOL    HW111090   2.208   1.981   0.150
 3586SOL    HW211091   2.221   1.832   0.216
 3587SOL     OW11092   2.797   2.098   0.480
 3587SOL    HW111093   2.749   2.139   0.402
 3587SOL    HW211094   2.896   2.096   0.461
 3588SOL     OW11095   2.938   2.545   1.464
 3588SOL    HW111096   2.858   2.484   1.467
 3588SOL    HW211097   3.019   2.492   1.440
 3589SOL     OW11098   3.089   3.432   0.793
 3589SOL    HW111099   3.110   3.506   0.728
 3589SOL    HW211100   3.157   3.432   0.866
 3590SOL     OW11101   2.321   3.014   0.741
 3590SOL    HW111102   2.250   2.987   0.806
 3590SOL    HW211103   2.295   2.986   0.648
 3591SOL     OW11104   3.133   3.659   0.591
 3591SOL    HW111105   3.177   3.723   0.527
 3591SOL    HW211106   3.083   3.711   0.661
 3592SOL     OW11107   2.894   2.411   0.016
 3592SOL    HW111108   2.853   2.493  -0.023
 3592SOL    HW211109   2.958   2.437   0.089
 3593SOL     OW11110   1.940   2.418   1.386
 3593SOL    HW111111   2.032   2.417   1.345
 3593SOL    HW211112   1.934   2.492   1.453
 3594SOL     OW11113   2.423   2.084   1.147
 3594SOL    HW111114   2.461   2.000   1.184
 3594SOL    HW211115   2.335   2.103   1.191
 3595SOL     OW11116   2.728   2.316   0.642
 3595SOL    HW111117   2.696   2.388   0.580
 3595SOL    HW211118   2.752   2.235   0.589
 3596SOL     OW11119   2.879   1.901   0.753
 3596SOL    HW111120   2.807   1.906   0.684
 3596SOL    HW211121   2.855   1.832   0.822
 3597SOL     OW11122   3.291   3.035   0.867
 3597SOL    HW111123   3.236   2.951   0.860
 3597SOL    HW211124   3.317   3.064   0.775
 3598SOL     OW11125   3.328   2.452   0.992
 3598SOL    HW111126   3.298   2.357   0.999
 3598SOL    HW211127   3.401   2.468   1.058
 3599SOL     OW11128   3.719   2.695   0.377
 3599SOL    HW111129   3.761   2.631   0.441
 3599SOL    HW211130   3.681   2.644   0.299
 3600SOL     OW11131   2.350   3.247   0.174
 3600SOL    HW111132   2.263   3.232   0.221
 3600SOL    HW211133   2.333   3.273   0.079
 3601SOL     OW11134   3.526   3.142   0.657
 3601SOL    HW111135   3.625   3.150   0.671
 3601SOL    HW211136   3.481   3.226   0.688
 3602SOL     OW11137   3.252   2.437   0.078
 3602SOL    HW111138   3.198   2.416   0.159
 3602SOL    HW211139   3.343   2.396   0.087
 3603SOL     OW11140   2.389   2.118   0.328
 3603SOL    HW111141   2.416   2.059   0.253
 3603SOL    HW211142   2.389   2.213   0.297
 3604SOL     OW11143   3.616   3.085   1.588
 3604SOL    HW111144   3.707   3.046   1.575
 3604SOL    HW211145   3.624   3.181   1.612
 3605SOL     OW11146   2.926   3.209   1.340
 3605SOL    HW111147   2.846   3.186   1.395
 3605SOL    HW211148   3.009   3.183   1.389
 3606SOL     OW11149   3.454   3.491   1.625
 3606SOL    HW111150   3.481   3.525   1.535
 3606SOL    HW211151   3.533   3.453   1.671
 3607SOL     OW11152   2.973   3.057   1.100
 3607SOL    HW111153   2.933   3.101   1.181
 3607SOL    HW211154   2.932   3.094   1.017
 3608SOL     OW11155   3.500   2.961   1.079
 3608SOL    HW111156   3.505   3.042   1.138
 3608SOL    HW211157   3.414   2.963   1.028
 3609SOL     OW11158   2.777   1.951   1.402
 3609SOL    HW111159   2.802   1.931   1.307
 3609SOL    HW211160   2.849   2.007   1.444
 3610SOL     OW11161   2.842   2.978   1.719
 3610SOL    HW111162   2.743   2.984   1.729
 3610SOL    HW211163   2.865   2.898   1.663
 3611SOL     OW11164   2.567   2.912   0.368
 3611SOL    HW111165   2.553   2.919   0.467
 3611SOL    HW211166   2.651   2.861   0.350
 3612SOL     OW11167   2.272   2.675   1.251
 3612SOL    HW111168   2.358   2.687   1.301
 3612SOL    HW211169   2.230   2.588   1.278
 3613SOL     OW11170   3.136   2.248   1.262
 3613SOL    HW111171   3.157   2.322   1.326
 3613SOL    HW211172   3.047   2.265   1.219
 3614SOL     OW11173   1.926   3.426   1.331
 3614SOL    HW111174   1.880   3.508   1.297
 3614SOL    HW211175   2.024   3.445   1.340
 3615SOL     OW11176   2.229   2.962   0.501
 3615SOL    HW111177   2.222   3.045   0.445
 3615SOL    HW211178   2.233   2.882   0.441
 3616SOL     OW11179   2.428   2.399   0.865
 3616SOL    HW111180   2.440   2.465   0.791
 3616SOL    HW211181   2.474   2.433   0.948
 3617SOL     OW11182   3.114   3.210   0.388
 3617SOL    HW111183   3.164   3.287   0.428
 3617SOL    HW211184   3.019   3.212   0.420
 3618SOL     OW11185   3.134   3.307   1.142
 3618SOL    HW111186   3.181   3.320   1.229
 3618SOL    HW211187   3.068   3.233   1.151
 3619SOL     OW11188   3.444   2.501   0.472
 3619SOL    HW111189   3.413   2.562   0.545
 3619SOL    HW211190   3.494   2.553   0.403
 3620SOL     OW11191   2.216   3.372   1.329
 3620SOL    HW111192   2.195   3.328   1.242
 3620SOL    HW211193   2.313   3.398   1.332
 3621SOL     OW11194   2.264   2.613   1.598
 3621SOL    HW111195   2.332   2.668   1.551
 3621SOL    HW211196   2.304   2.525   1.625
 3622SOL     OW11197   3.449   2.641   1.670
 3622SOL    HW111198   3.357   2.679   1.665
 3622SOL    HW211199   3.509   2.688   1.605
 3623SOL     OW11200   2.875   1.967   1.770
 3623SOL    HW111201   2.881   2.052   1.718
 3623SOL    HW211202   2.907   1.891   1.713
 3624SOL     OW11203   2.366   1.912   1.740
 3624SOL    HW111204   2.324   1.855   1.670
 3624SOL    HW211205   2.300   1.981   1.772
 3625SOL     OW11206   3.222   2.724   1.045
 3625SOL    HW111207   3.147   2.724   0.979
 3625SOL    HW211208   3.259   2.632   1.054
 3626SOL     OW11209   3.071   2.387   0.275
 3626SOL    HW111210   3.084   2.303   0.329
 3626SOL    HW211211   3.042   2.461   0.335
 3627SOL     OW11212   2.169   2.075   1.231
 3627SOL    HW111213   2.146   2.112   1.321
 3627SOL    HW211214   2.139   1.980   1.225
 3628SOL     OW11215   1.899   3.172   1.282
 3628SOL    HW111216   1.952   3.123   1.350
 3628SOL    HW211217   1.921   3.270   1.287
 3629SOL     OW11218   3.590   2.797   1.854
 3629SOL    HW111219   3.544   2.790   1.765
 3629SOL    HW211220   3.528   2.841   1.920
 3630SOL     OW11221   2.169   1.925   0.618
 3630SOL    HW111222   2.158   2.019   0.651
 3630SOL    HW211223   2.164   1.862   0.695
 3631SOL     OW11224   3.484   2.229   0.374
 3631SOL    HW111225   3.486   2.153   0.438
 3631SOL    HW211226   3.436   2.306   0.414
 3632SOL     OW11227   2.842   3.435   1.700
 3632SOL    HW111228   2.822   3.479   1.612
 3632SOL    HW211229   2.881   3.344   1.684
 3633SOL     OW11230   3.721   3.380   1.605
 3633SOL    HW111231   3.735   3.407   1.510
 3633SOL    HW211232   3.804   3.402   1.658
 3634SOL     OW11233   2.212   2.760   1.804
 3634SOL    HW111234   2.288   2.804   1.852
 3634SOL    HW211235   2.247   2.713   1.722
 3635SOL     OW11236   3.402   2.136   0.125
 3635SOL    HW111237   3.341   2.061   0.148
 3635SOL    HW211238   3.424   2.188   0.208
 3636SOL     OW11239   3.165   2.700   0.042
 3636SOL    HW111240   3.199   2.607   0.057
 3636SOL    HW211241   3.183   2.727  -0.053
 3637SOL     OW11242   2.930   3.195   0.849
 3637SOL    HW111243   2.937   3.111   0.794
 3637SOL    HW211244   2.992   3.264   0.813
 3638SOL     OW11245   2.181   2.672   0.949
 3638SOL    HW111246   2.274   2.708   0.954
 3638SOL    HW211247   2.175   2.587   1.001
 3639SOL     OW11248   2.201   2.371   1.006
 3639SOL    HW111249   2.149   2.288   0.989
 3639SOL    HW211250   2.278   2.376   0.942
 3640SOL     OW11251   3.000   2.242   1.678
 3640SOL    HW111252   2.955   2.305   1.742
 3640SOL    HW211253   3.093   2.273   1.661
 3641SOL     OW11254   3.022   2.069   1.477
 3641SOL    HW111255   3.022   2.133   1.554
 3641SOL    HW211256   3.050   2.117   1.394
 3642SOL     OW11257   1.870   3.188   0.200
 3642SOL    HW111258   1.777   3.209   0.169
 3642SOL    HW211259   1.880   3.089   0.213
 3643SOL     OW11260   1.950   3.663   0.927
 3643SOL    HW111261   1.908   3.577   0.900
 3643SOL    HW211262   2.044   3.666   0.893
 3644SOL     OW11263   2.366   3.430   0.910
 3644SOL    HW111264   2.432   3.504   0.919
 3644SOL    HW211265   2.410   3.351   0.868
 3645SOL     OW11266   1.902   2.406   1.114
 3645SOL    HW111267   1.987   2.373   1.073
 3645SOL    HW211268   1.915   2.421   1.212
 3646SOL     OW11269   2.051   2.382   1.722
 3646SOL    HW111270   2.110   2.342   1.652
 3646SOL    HW211271   1.993   2.453   1.681
 3647SOL     OW11272   3.231   2.812   1.660
 3647SOL    HW111273   3.270   2.901   1.680
 3647SOL    HW211274   3.241   2.792   1.563
 3648SOL     OW11275   3.519   2.466   1.206
 3648SOL    HW111276   3.481   2.397   1.268
 3648SOL    HW211277   3.601   2.430   1.162
 3649SOL     OW11278   2.114   3.426   1.744
 3649SOL    HW111279   2.084   3.483   1.820
 3649SOL    HW211280   2.107   3.329   1.770
 3650SOL     OW11281   2.533   2.326   1.269
 3650SOL    HW111282   2.499   2.237   1.239
 3650SOL    HW211283   2.559   2.380   1.189
 3651SOL     OW11284   2.792   3.540   1.465
 3651SOL    HW111285   2.768   3.522   1.370
 3651SOL    HW211286   2.822   3.634   1.475
 3652SOL     OW11287   2.335   2.362   0.191
 3652SOL    HW111288   2.396   2.442   0.195
 3652SOL    HW211289   2.240   2.393   0.198
 3653SOL     OW11290   2.021   2.999   1.466
 3653SOL    HW111291   2.043   2.938   1.542
 3653SOL    HW211292   2.031   2.950   1.380
 3654SOL     OW11293   3.209   2.921   1.234
 3654SOL    HW111294   3.233   2.858   1.160
 3654SOL    HW211295   3.119   2.961   1.216
 3655SOL     OW11296   3.164   2.717   0.309
 3655SOL    HW111297   3.078   2.686   0.351
 3655SOL    HW211298   3.160   2.703   0.210
 3656SOL     OW11299   3.621   3.609   1.154
 3656SOL    HW111300   3.682   3.639   1.081
 3656SOL    HW211301   3.583   3.520   1.132
 3657SOL     OW11302   3.114   3.593   1.128
 3657SOL    HW111303   3.198   3.598   1.074
 3657SOL    HW211304   3.091   3.497   1.146
 3658SOL     OW11305   1.945   3.120   1.022
 3658SOL    HW111306   1.940   3.119   1.122
 3658SOL    HW211307   1.862   3.079   0.984
 3659SOL     OW11308   2.550   3.524   1.716
 3659SOL    HW111309   2.494   3.605   1.725
 3659SOL    HW211310   2.602   3.528   1.630
 3660SOL     OW11311   2.765   1.948   0.133
 3660SOL    HW111312   2.816   1.949   0.047
 3660SOL    HW211313   2.821   1.906   0.204
 3661SOL     OW11314   3.588   1.997   0.523
 3661SOL    HW111315   3.661   1.980   0.456
 3661SOL    HW211316   3.557   1.910   0.561
 3662SOL     OW11317   3.250   3.435   0.477
 3662SOL    HW111318   3.317   3.447   0.403
 3662SOL    HW211319   3.210   3.524   0.500
 3663SOL     OW11320   1.992   3.656   1.851
 3663SOL    HW111321   1.951   3.582   1.904
 3663SOL    HW211322   2.056   3.707   1.909
 3664SOL     OW11323   3.142   2.789   0.672
 3664SOL    HW111324   3.202   2.708   0.674
 3664SOL    HW211325   3.182   2.858   0.612
 3665SOL     OW11326   2.692   3.135   1.422
 3665SOL    HW111327   2.687   3.168   1.517
 3665SOL    HW211328   2.606   3.154   1.376
 3666SOL     OW11329   2.534   3.478   0.154
 3666SOL    HW111330   2.543   3.488   0.055
 3666SOL    HW211331   2.494   3.389   0.175
 3667SOL     OW11332   3.512   3.582   1.394
 3667SOL    HW111333   3.565   3.592   1.310
 3667SOL    HW211334   3.485   3.672   1.428
 3668SOL     OW11335   3.703   2.037   0.963
 3668SOL    HW111336   3.742   1.952   0.927
 3668SOL    HW211337   3.605   2.039   0.944
 3669SOL     OW11338   2.125   2.188   0.720
 3669SOL    HW111339   2.046   2.239   0.686
 3669SOL    HW211340   2.116   2.173   0.818
 3670SOL     OW11341   3.056   3.474   0.031
 3670SOL    HW111342   3.062   3.381   0.068
 3670SOL    HW211343   2.997   3.474  -0.049
 3671SOL     OW11344   3.366   3.469   0.044
 3671SOL    HW111345   3.274   3.506   0.051
 3671SOL    HW211346   3.404   3.489  -0.046
 3672SOL     OW11347   2.234   3.150   1.490
 3672SOL    HW111348   2.221   3.243   1.456
 3672SOL    HW211349   2.150   3.098   1.477
 3673SOL     OW11350   3.476   3.154   1.289
 3673SOL    HW111351   3.536   3.157   1.369
 3673SOL    HW211352   3.401   3.218   1.302
 3674SOL     OW11353   2.901   2.960   0.696
 3674SOL    HW111354   2.831   2.913   0.750
 3674SOL    HW211355   2.960   2.892   0.653
 3675SOL     OW11356   2.876   2.098   0.971
 3675SOL    HW111357   2.868   2.062   0.878
 3675SOL    HW211358   2.874   2.022   1.036
 3676SOL     OW11359   2.452   3.349   0.491
 3676SOL    HW111360   2.494   3.291   0.421
 3676SOL    HW211361   2.408   3.428   0.447
 3677SOL     OW11362   3.571   2.247   1.381
 3677SOL    HW111363   3.644   2.316   1.385
 3677SOL    HW211364   3.599   2.172   1.322
 3678SOL     OW11365   2.117   3.210   0.290
 3678SOL    HW111366   2.021   3.211   0.263
 3678SOL    HW211367   2.129   3.263   0.374
 3679SOL     OW11368   1.967   2.875   1.726
 3679SOL    HW111369   1.890   2.842   1.780
 3679SOL    HW211370   2.052   2.845   1.768
 3680SOL     OW11371   2.534   2.065   1.489
 3680SOL    HW111372   2.624   2.049   1.449
 3680SOL    HW211373   2.542   2.070   1.588
 3681SOL     OW11374   1.937   2.207   0.033
 3681SOL    HW111375   1.845   2.179   0.004
 3681SOL    HW211376   1.968   2.284  -0.023
 3682SOL     OW11377   3.302   2.718   1.398
 3682SOL    HW111378   3.245   2.770   1.335
 3682SOL    HW211379   3.398   2.730   1.374
 3683SOL     OW11380   1.934   2.028   0.318
 3683SOL    HW111381   1.917   2.111   0.264
 3683SOL    HW211382   2.024   1.991   0.296
 3684SOL     OW11383   3.045   3.197   0.119
 3684SOL    HW111384   2.946   3.186   0.121
 3684SOL    HW211385   3.079   3.212   0.212
 3685SOL     OW11386   3.355   3.629   0.959
 3685SOL    HW111387   3.388   3.693   0.890
 3685SOL    HW211388   3.421   3.623   1.034
 3686SOL     OW11389   3.312   3.082   1.633
 3686SOL    HW111390   3.303   3.072   1.732
 3686SOL    HW211391   3.408   3.075   1.607
 3687SOL     OW11392   2.252   3.603   1.560
 3687SOL    HW111393   2.161   3.644   1.558
 3687SOL    HW211394   2.245   3.509   1.592
 3688SOL     OW11395   3.536   2.745   1.254
 3688SOL    HW111396   3.509   2.656   1.217
 3688SOL    HW211397   3.537   2.813   1.181
 3689SOL     OW11398   3.087   2.187   0.449
 3689SOL    HW111399   3.152   2.113   0.438
 3689SOL    HW211400   3.107   2.237   0.533
 3690SOL     OW11401   3.639   2.204   1.642
 3690SOL    HW111402   3.622   2.235   1.548
 3690SOL    HW211403   3.555   2.167   1.680
 3691SOL     OW11404   3.592   2.796   1.517
 3691SOL    HW111405   3.630   2.887   1.532
 3691SOL    HW211406   3.584   2.779   1.418
 3692SOL     OW11407   2.721   3.236   0.016
 3692SOL    HW111408   2.675   3.251   0.104
 3692SOL    HW211409   2.765   3.321  -0.014
 3693SOL     OW11410   2.523   3.652   0.953
 3693SOL    HW111411   2.477   3.740   0.940
 3693SOL    HW211412   2.622   3.664   0.946
 3694SOL     OW11413   2.945   2.846   0.087
 3694SOL    HW111414   2.922   2.899   0.005
 3694SOL    HW211415   3.026   2.790   0.068
 3695SOL     OW11416   3.723   3.431   0.851
 3695SOL    HW111417   3.652   3.419   0.781
 3695SOL    HW211418   3.724   3.352   0.911
 3696SOL     OW11419   2.083   3.176   1.844
 3696SOL    HW111420   2.018   3.103   1.823
 3696SOL    HW211421   2.087   3.190   1.942
 3697SOL     OW11422   1.941   3.102   0.653
 3697SOL    HW111423   1.940   3.055   0.741
 3697SOL    HW211424   2.023   3.074   0.602
 3698SOL     OW11425   2.534   3.253   1.624
 3698SOL    HW111426   2.456   3.203   1.662
 3698SOL    HW211427   2.531   3.348   1.655
 3699SOL     OW11428   3.686   2.054   1.227
 3699SOL    HW111429   3.682   1.964   1.271
 3699SOL    HW211430   3.689   2.043   1.128
 3700SOL     OW11431   2.290   2.286   0.520
 3700SOL    HW111432   2.320   2.214   0.458
 3700SOL    HW211433   2.251   2.246   0.603
 3701SOL     OW11434   3.567   3.349   1.104
 3701SOL    HW111435   3.474   3.324   1.077
 3701SOL    HW211436   3.593   3.299   1.186
 3702SOL     OW11437   2.179   2.409   1.280
 3702SOL    HW111438   2.217   2.350   1.352
 3702SOL    HW211439   2.219   2.383   1.192
 3703SOL     OW11440   2.674   3.448   0.687
 3703SOL    HW111441   2.706   3.458   0.593
 3703SOL    HW211442   2.595   3.386   0.689
 3704SOL     OW11443   3.286   2.076   1.112
 3704SOL    HW111444   3.338   2.011   1.167
 3704SOL    HW211445   3.237   2.139   1.173
 3705SOL     OW11446   2.863   1.896   1.154
 3705SOL    HW111447   2.800   1.824   1.123
 3705SOL    HW211448   2.956   1.860   1.154
 3706SOL     OW11449   2.632   3.192   0.301
 3706SOL    HW111450   2.586   3.105   0.318
 3706SOL    HW211451   2.723   3.189   0.342
 3707SOL     OW11452   2.480   3.429   1.284
 3707SOL    HW111453   2.475   3.511   1.341
 3707SOL    HW211454   2.569   3.426   1.239
 3708SOL     OW11455   3.214   1.914   0.168
 3708SOL    HW111456   3.249   1.873   0.084
 3708SOL    HW211457   3.124   1.876   0.188
 3709SOL     OW11458   3.162   2.315   0.691
 3709SOL    HW111459   3.103   2.395   0.695
 3709SOL    HW211460   3.177   2.280   0.784
 3710SOL     OW11461   3.455   2.083   0.882
 3710SOL    HW111462   3.371   2.082   0.936
 3710SOL    HW211463   3.457   2.166   0.826
 3711SOL     OW11464   1.901   2.939   0.300
 3711SOL    HW111465   2.000   2.928   0.291
 3711SOL    HW211466   1.861   2.853   0.332
 3712SOL     OW11467   2.737   3.508   0.337
 3712SOL    HW111468   2.660   3.473   0.283
 3712SOL    HW211469   2.705   3.579   0.399
 3713SOL     OW11470   2.092   2.490   1.975
 3713SOL    HW111471   1.999   2.488   2.012
 3713SOL    HW211472   2.093   2.451   1.883
 3714SOL     OW11473   2.087   2.137   2.858
 3714SOL    HW111474   2.122   2.120   2.950
 3714SOL    HW211475   1.999   2.092   2.846
 3715SOL     OW11476   1.881   2.230   2.509
 3715SOL    HW111477   1.799   2.273   2.548
 3715SOL    HW211478   1.853   2.157   2.446
 3716SOL     OW11479   2.431   3.137   3.027
 3716SOL    HW111480   2.338   3.130   2.990
 3716SOL    HW211481   2.442   3.226   3.071
 3717SOL     OW11482   3.417   3.373   2.565
 3717SOL    HW111483   3.360   3.357   2.646
 3717SOL    HW211484   3.358   3.383   2.485
 3718SOL     OW11485   2.997   2.565   2.579
 3718SOL    HW111486   3.054   2.643   2.554
 3718SOL    HW211487   2.937   2.591   2.655
 3719SOL     OW11488   3.617   2.469   2.093
 3719SOL    HW111489   3.605   2.456   1.994
 3719SOL    HW211490   3.587   2.388   2.142
 3720SOL     OW11491   2.630   3.006   2.885
 3720SOL    HW111492   2.552   3.023   2.945
 3720SOL    HW211493   2.664   3.093   2.849
 3721SOL     OW11494   2.197   3.297   2.923
 3721SOL    HW111495   2.119   3.266   2.870
 3721SOL    HW211496   2.255   3.355   2.866
 3722SOL     OW11497   3.322   3.367   3.201
 3722SOL    HW111498   3.346   3.461   3.227
 3722SOL    HW211499   3.306   3.313   3.283
 3723SOL     OW11500   2.300   2.254   3.361
 3723SOL    HW111501   2.382   2.198   3.370
 3723SOL    HW211502   2.219   2.196   3.365
 3724SOL     OW11503   3.465   2.309   2.599
 3724SOL    HW111504   3.391   2.355   2.549
 3724SOL    HW211505   3.516   2.377   2.652
 3725SOL     OW11506   2.093   3.575   2.345
 3725SOL    HW111507   2.127   3.652   2.399
 3725SOL    HW211508   2.137   3.575   2.255
 3726SOL     OW11509   2.989   3.203   3.552
 3726SOL    HW111510   3.036   3.203   3.640
 3726SOL    HW211511   2.941   3.116   3.541
 3727SOL     OW11512   2.092   3.296   2.400
 3727SOL    HW111513   2.066   3.392   2.400
 3727SOL    HW211514   2.021   3.242   2.445
 3728SOL     OW11515   2.102   2.953   2.748
 3728SOL    HW111516   2.116   2.869   2.800
 3728SOL    HW211517   2.047   3.017   2.803
 3729SOL     OW11518   2.482   3.648   3.301
 3729SOL    HW111519   2.390   3.631   3.336
 3729SOL    HW211520   2.510   3.740   3.327
 3730SOL     OW11521   2.468   2.826   1.985
 3730SOL    HW111522   2.475   2.910   1.931
 3730SOL    HW211523   2.514   2.839   2.073
 3731SOL     OW11524   3.456   1.976   3.342
 3731SOL    HW111525   3.438   2.043   3.270
 3731SOL    HW211526   3.453   2.022   3.431
 3732SOL     OW11527   1.984   2.505   2.425
 3732SOL    HW111528   1.939   2.417   2.442
 3732SOL    HW211529   1.983   2.559   2.509
 3733SOL     OW11530   3.704   3.629   2.221
 3733SOL    HW111531   3.758   3.600   2.301
 3733SOL    HW211532   3.734   3.719   2.192
 3734SOL     OW11533   1.889   3.458   1.979
 3734SOL    HW111534   1.870   3.362   2.000
 3734SOL    HW211535   1.856   3.516   2.054
 3735SOL     OW11536   3.551   2.784   2.474
 3735SOL    HW111537   3.646   2.755   2.482
 3735SOL    HW211538   3.543   2.849   2.399
 3736SOL     OW11539   3.503   2.970   2.294
 3736SOL    HW111540   3.589   2.972   2.242
 3736SOL    HW211541   3.517   3.017   2.382
 3737SOL     OW11542   1.975   2.599   3.459
 3737SOL    HW111543   2.063   2.586   3.504
 3737SOL    HW211544   1.962   2.696   3.437
 3738SOL     OW11545   2.475   3.227   2.588
 3738SOL    HW111546   2.426   3.140   2.597
 3738SOL    HW211547   2.452   3.270   2.501
 3739SOL     OW11548   3.155   3.090   3.285
 3739SOL    HW111549   3.192   3.017   3.227
 3739SOL    HW211550   3.207   3.095   3.370
 3740SOL     OW11551   2.671   1.866   2.364
 3740SOL    HW111552   2.711   1.957   2.355
 3740SOL    HW211553   2.571   1.874   2.370
 3741SOL     OW11554   2.059   2.838   3.126
 3741SOL    HW111555   2.148   2.793   3.112
 3741SOL    HW211556   1.986   2.773   3.107
 3742SOL     OW11557   3.387   2.861   2.052
 3742SOL    HW111558   3.324   2.785   2.065
 3742SOL    HW211559   3.435   2.879   2.138
 3743SOL     OW11560   3.049   3.654   3.478
 3743SOL    HW111561   3.073   3.714   3.402
 3743SOL    HW211562   3.056   3.559   3.448
 3744SOL     OW11563   2.179   2.113   3.663
 3744SOL    HW111564   2.250   2.184   3.669
 3744SOL    HW211565   2.091   2.152   3.691
 3745SOL     OW11566   3.328   3.279   2.815
 3745SOL    HW111567   3.269   3.285   2.895
 3745SOL    HW211568   3.313   3.191   2.769
 3746SOL     OW11569   3.529   3.576   2.434
 3746SOL    HW111570   3.488   3.553   2.346
 3746SOL    HW211571   3.511   3.502   2.499
 3747SOL     OW11572   3.143   2.207   2.806
 3747SOL    HW111573   3.057   2.157   2.793
 3747SOL    HW211574   3.205   2.153   2.862
 3748SOL     OW11575   3.438   3.524   2.169
 3748SOL    HW111576   3.527   3.570   2.172
 3748SOL    HW211577   3.417   3.500   2.074
 3749SOL     OW11578   2.853   2.272   3.104
 3749SOL    HW111579   2.776   2.306   3.158
 3749SOL    HW211580   2.819   2.221   3.025
 3750SOL     OW11581   1.938   2.673   2.651
 3750SOL    HW111582   2.037   2.661   2.660
 3750SOL    HW211583   1.914   2.768   2.672
 3751SOL     OW11584   1.992   3.683   3.433
 3751SOL    HW111585   1.982   3.668   3.532
 3751SOL    HW211586   1.906   3.719   3.397
 3752SOL     OW11587   2.727   2.210   2.057
 3752SOL    HW111588   2.786   2.273   2.008
 3752SOL    HW211589   2.746   2.116   2.028
 3753SOL     OW11590   3.581   2.447   3.693
 3753SOL    HW111591   3.555   2.536   3.657
 3753SOL    HW211592   3.579   2.379   3.620
 3754SOL     OW11593   3.224   3.006   2.407
 3754SOL    HW111594   3.307   2.977   2.359
 3754SOL    HW211595   3.175   3.073   2.351
 3755SOL     OW11596   2.412   2.058   2.747
 3755SOL    HW111597   2.407   2.053   2.847
 3755SOL    HW211598   2.414   2.154   2.718
 3756SOL     OW11599   2.870   3.318   2.339
 3756SOL    HW111600   2.824   3.390   2.287
 3756SOL    HW211601   2.866   3.338   2.437
 3757SOL     OW11602   2.213   3.663   2.715
 3757SOL    HW111603   2.263   3.577   2.721
 3757SOL    HW211604   2.278   3.740   2.712
 3758SOL     OW11605   3.657   2.928   2.735
 3758SOL    HW111606   3.595   2.913   2.659
 3758SOL    HW211607   3.605   2.939   2.820
 3759SOL     OW11608   3.089   3.412   3.368
 3759SOL    HW111609   3.095   3.335   3.432
 3759SOL    HW211610   3.037   3.386   3.288
 3760SOL     OW11611   2.183   2.805   2.104
 3760SOL    HW111612   2.265   2.844   2.062
 3760SOL    HW211613   2.156   2.723   2.055
 3761SOL     OW11614   3.320   2.597   2.590
 3761SOL    HW111615   3.315   2.532   2.665
 3761SOL    HW211616   3.400   2.656   2.603
 3762SOL     OW11617   2.323   3.128   3.589
 3762SOL    HW111618   2.273   3.129   3.503
 3762SOL    HW211619   2.260   3.110   3.665
 3763SOL     OW11620   2.973   3.638   2.099
 3763SOL    HW111621   2.913   3.576   2.149
 3763SOL    HW211622   3.004   3.594   2.014
 3764SOL     OW11623   2.064   2.147   3.360
 3764SOL    HW111624   1.984   2.207   3.347
 3764SOL    HW211625   2.054   2.098   3.446
 3765SOL     OW11626   3.494   3.239   1.943
 3765SOL    HW111627   3.462   3.333   1.933
 3765SOL    HW211628   3.418   3.176   1.931
 3766SOL     OW11629   2.326   3.605   2.185
 3766SOL    HW111630   2.359   3.644   2.271
 3766SOL    HW211631   2.402   3.598   2.120
 3767SOL     OW11632   3.262   1.969   2.288
 3767SOL    HW111633   3.238   1.932   2.198
 3767SOL    HW211634   3.361   1.985   2.292
 3768SOL     OW11635   2.111   3.647   3.103
 3768SOL    HW111636   2.168   3.582   3.153
 3768SOL    HW211637   2.095   3.614   3.010
 3769SOL     OW11638   2.802   3.560   2.766
 3769SOL    HW111639   2.882   3.503   2.787
 3769SOL    HW211640   2.753   3.520   2.689
 3770SOL     OW11641   2.244   2.562   2.342
 3770SOL    HW111642   2.289   2.472   2.339
 3770SOL    HW211643   2.150   2.551   2.375
 3771SOL     OW11644   3.409   2.084   3.591
 3771SOL    HW111645   3.404   2.121   3.683
 3771SOL    HW211646   3.337   2.015   3.579
 3772SOL     OW11647   2.476   1.984   1.979
 3772SOL    HW111648   2.574   1.962   1.986
 3772SOL    HW211649   2.445   1.967   1.886
 3773SOL     OW11650   2.750   3.376   3.057
 3773SOL    HW111651   2.727   3.351   2.963
 3773SOL    HW211652   2.811   3.307   3.096
 3774SOL     OW11653   3.213   2.452   3.295
 3774SOL    HW111654   3.241   2.409   3.380
 3774SOL    HW211655   3.238   2.548   3.296
 3775SOL     OW11656   2.665   3.264   2.786
 3775SOL    HW111657   2.755   3.278   2.744
 3775SOL    HW211658   2.594   3.266   2.715
 3776SOL     OW11659   2.784   2.365   2.761
 3776SOL    HW111660   2.759   2.356   2.665
 3776SOL    HW211661   2.832   2.283   2.792
 3777SOL     OW11662   2.401   1.926   2.374
 3777SOL    HW111663   2.320   1.927   2.432
 3777SOL    HW211664   2.404   2.009   2.319
 3778SOL     OW11665   3.296   3.050   1.903
 3778SOL    HW111666   3.328   2.974   1.960
 3778SOL    HW211667   3.204   3.077   1.933
 3779SOL     OW11668   2.159   1.897   2.033
 3779SOL    HW111669   2.208   1.981   2.012
 3779SOL    HW211670   2.221   1.832   2.078
 3780SOL     OW11671   2.797   2.098   2.342
 3780SOL    HW111672   2.749   2.139   2.264
 3780SOL    HW211673   2.896   2.096   2.323
 3781SOL     OW11674   2.938   2.545   3.326
 3781SOL    HW111675   2.858   2.484   3.329
 3781SOL    HW211676   3.019   2.492   3.302
 3782SOL     OW11677   3.089   3.432   2.655
 3782SOL    HW111678   3.110   3.506   2.590
 3782SOL    HW211679   3.157   3.432   2.728
 3783SOL     OW11680   2.321   3.014   2.603
 3783SOL    HW111681   2.250   2.987   2.668
 3783SOL    HW211682   2.295   2.986   2.510
 3784SOL     OW11683   3.133   3.659   2.453
 3784SOL    HW111684   3.177   3.723   2.389
 3784SOL    HW211685   3.083   3.711   2.523
 3785SOL     OW11686   2.894   2.411   1.878
 3785SOL    HW111687   2.853   2.493   1.839
 3785SOL    HW211688   2.958   2.437   1.951
 3786SOL     OW11689   1.940   2.418   3.248
 3786SOL    HW111690   2.032   2.417   3.207
 3786SOL    HW211691   1.934   2.492   3.315
 3787SOL     OW11692   2.423   2.084   3.009
 3787SOL    HW111693   2.461   2.000   3.046
 3787SOL    HW211694   2.335   2.103   3.053
 3788SOL     OW11695   2.728   2.316   2.504
 3788SOL    HW111696   2.696   2.388   2.442
 3788SOL    HW211697   2.752   2.235   2.451
 3789SOL     OW11698   2.879   1.901   2.615
 3789SOL    HW111699   2.807   1.906   2.546
 3789SOL    HW211700   2.855   1.832   2.684
 3790SOL     OW11701   3.291   3.035   2.729
 3790SOL    HW111702   3.236   2.951   2.722
 3790SOL    HW211703   3.317   3.064   2.637
 3791SOL     OW11704   3.328   2.452   2.854
 3791SOL    HW111705   3.298   2.357   2.861
 3791SOL    HW211706   3.401   2.468   2.920
 3792SOL     OW11707   3.719   2.695   2.239
 3792SOL    HW111708   3.761   2.631   2.303
 3792SOL    HW211709   3.681   2.644   2.161
 3793SOL     OW11710   2.350   3.247   2.036
 3793SOL    HW111711   2.263   3.232   2.083
 3793SOL    HW211712   2.333   3.273   1.941
 3794SOL     OW11713   3.526   3.142   2.519
 3794SOL    HW111714   3.625   3.150   2.533
 3794SOL    HW211715   3.481   3.226   2.550
 3795SOL     OW11716   3.252   2.437   1.940
 3795SOL    HW111717   3.198   2.416   2.021
 3795SOL    HW211718   3.343   2.396   1.949
 3796SOL     OW11719   2.389   2.118   2.190
 3796SOL    HW111720   2.416   2.059   2.115
 3796SOL    HW211721   2.389   2.213   2.159
 3797SOL     OW11722   3.616   3.085   3.450
 3797SOL    HW111723   3.707   3.046   3.437
 3797SOL    HW211724   3.624   3.181   3.474
 3798SOL     OW11725   2.926   3.209   3.202
 3798SOL    HW111726   2.846   3.186   3.257
 3798SOL    HW211727   3.009   3.183   3.251
 3799SOL     OW11728   3.454   3.491   3.487
 3799SOL    HW111729   3.481   3.525   3.397
 3799SOL    HW211730   3.533   3.453   3.533
 3800SOL     OW11731   2.973   3.057   2.962
 3800SOL    HW111732   2.933   3.101   3.043
 3800SOL    HW211733   2.932   3.094   2.879
 3801SOL     OW11734   3.500   2.961   2.941
 3801SOL    HW111735   3.505   3.042   3.000
 3801SOL    HW211736   3.414   2.963   2.890
 3802SOL     OW11737   2.777   1.951   3.264
 3802SOL    HW111738   2.802   1.931   3.169
 3802SOL    HW211739   2.849   2.007   3.306
 3803SOL     OW11740   2.842   2.978   3.581
 3803SOL    HW111741   2.743   2.984   3.591
 3803SOL    HW211742   2.865   2.898   3.525
 3804SOL     OW11743   2.272   2.675   3.113
 3804SOL    HW111744   2.358   2.687   3.163
 3804SOL    HW211745   2.230   2.588   3.140
 3805SOL     OW11746   3.136   2.248   3.124
 3805SOL    HW111747   3.157   2.322   3.188
 3805SOL    HW211748   3.047   2.265   3.081
 3806SOL     OW11749   1.926   3.426   3.193
 3806SOL    HW111750   1.880   3.508   3.159
 3806SOL    HW211751   2.024   3.445   3.202
 3807SOL     OW11752   2.229   2.962   2.363
 3807SOL    HW111753   2.222   3.045   2.307
 3807SOL    HW211754   2.233   2.882   2.303
 3808SOL     OW11755   2.428   2.399   2.727
 3808SOL    HW111756   2.440   2.465   2.653
 3808SOL    HW211757   2.474   2.433   2.810
 3809SOL     OW11758   3.114   3.210   2.250
 3809SOL    HW111759   3.164   3.287   2.290
 3809SOL    HW211760   3.019   3.212   2.282
 3810SOL     OW11761   3.134   3.307   3.004
 3810SOL    HW111762   3.181   3.320   3.091
 3810SOL    HW211763   3.068   3.233   3.013
 3811SOL     OW11764   3.444   2.501   2.334
 3811SOL    HW111765   3.413   2.562   2.407
 3811SOL    HW211766   3.494   2.553   2.265
 3812SOL     OW11767   2.216   3.372   3.191
 3812SOL    HW111768   2.195   3.328   3.104
 3812SOL    HW211769   2.313   3.398   3.194
 3813SOL     OW11770   2.264   2.613   3.460
 3813SOL    HW111771   2.332   2.668   3.413
 3813SOL    HW211772   2.304   2.525   3.487
 3814SOL     OW11773   3.449   2.641   3.532
 3814SOL    HW111774   3.357   2.679   3.527
 3814SOL    HW211775   3.509   2.688   3.467
 3815SOL     OW11776   2.875   1.967   3.632
 3815SOL    HW111777   2.881   2.052   3.580
 3815SOL    HW211778   2.907   1.891   3.575
 3816SOL     OW11779   2.366   1.912   3.602
 3816SOL    HW111780   2.324   1.855   3.532
 3816SOL    HW211781   2.300   1.981   3.634
 3817SOL     OW11782   3.222   2.724   2.907
 3817SOL    HW111783   3.147   2.724   2.841
 3817SOL    HW211784   3.259   2.632   2.916
 3818SOL     OW11785   3.071   2.387   2.137
 3818SOL    HW111786   3.084   2.303   2.191
 3818SOL    HW211787   3.042   2.461   2.197
 3819SOL     OW11788   2.169   2.075   3.093
 3819SOL    HW111789   2.146   2.112   3.183
 3819SOL    HW211790   2.139   1.980   3.087
 3820SOL     OW11791   1.899   3.172   3.144
 3820SOL    HW111792   1.952   3.123   3.212
 3820SOL    HW211793   1.921   3.270   3.149
 3821SOL     OW11794   3.590   2.797   3.716
 3821SOL    HW111795   3.544   2.790   3.627
 3821SOL    HW211796   3.528   2.841   3.782
 3822SOL     OW11797   2.169   1.925   2.480
 3822SOL    HW111798   2.158   2.019   2.513
 3822SOL    HW211799   2.164   1.862   2.557
 3823SOL     OW11800   3.484   2.229   2.236
 3823SOL    HW111801   3.486   2.153   2.300
 3823SOL    HW211802   3.436   2.306   2.276
 3824SOL     OW11803   2.842   3.435   3.562
 3824SOL    HW111804   2.822   3.479   3.474
 3824SOL    HW211805   2.881   3.344   3.546
 3825SOL     OW11806   3.721   3.380   3.467
 3825SOL    HW111807   3.735   3.407   3.372
 3825SOL    HW211808   3.804   3.402   3.520
 3826SOL     OW11809   3.402   2.136   1.987
 3826SOL    HW111810   3.341   2.061   2.010
 3826SOL    HW211811   3.424   2.188   2.070
 3827SOL     OW11812   3.165   2.700   1.904
 3827SOL    HW111813   3.199   2.607   1.919
 3827SOL    HW211814   3.183   2.727   1.809
 3828SOL     OW11815   2.930   3.195   2.711
 3828SOL    HW111816   2.937   3.111   2.656
 3828SOL    HW211817   2.992   3.264   2.675
 3829SOL     OW11818   2.181   2.672   2.811
 3829SOL    HW111819   2.274   2.708   2.816
 3829SOL    HW211820   2.175   2.587   2.863
 3830SOL     OW11821   2.201   2.371   2.868
 3830SOL    HW111822   2.149   2.288   2.851
 3830SOL    HW211823   2.278   2.376   2.804
 3831SOL     OW11824   3.000   2.242   3.540
 3831SOL    HW111825   2.955   2.305   3.604
 3831SOL    HW211826   3.093   2.273   3.523
 3832SOL     OW11827   3.022   2.069   3.339
 3832SOL    HW111828   3.022   2.133   3.416
 3832SOL    HW211829   3.050   2.117   3.256
 3833SOL     OW11830   1.870   3.188   2.062
 3833SOL    HW111831   1.777   3.209   2.031
 3833SOL    HW211832   1.880   3.089   2.075
 3834SOL     OW11833   1.950   3.663   2.789
 3834SOL    HW111834   1.908   3.577   2.762
 3834SOL    HW211835   2.044   3.666   2.755
 3835SOL     OW11836   2.366   3.430   2.772
 3835SOL    HW111837   2.432   3.504   2.781
 3835SOL    HW211838   2.410   3.351   2.730
 3836SOL     OW11839   1.902   2.406   2.976
 3836SOL    HW111840   1.987   2.373   2.935
 3836SOL    HW211841   1.915   2.421   3.074
 3837SOL     OW11842   2.051   2.382   3.584
 3837SOL    HW111843   2.110   2.342   3.514
 3837SOL    HW211844   1.993   2.453   3.543
 3838SOL     OW11845   3.231   2.812   3.522
 3838SOL    HW111846   3.270   2.901   3.542
 3838SOL    HW211847   3.241   2.792   3.425
 3839SOL     OW11848   2.677   2.434   2.187
 3839SOL    HW111849   2.684   2.345   2.141
 3839SOL    HW211850   2.583   2.468   2.179
 3840SOL     OW11851   3.519   2.466   3.068
 3840SOL    HW111852   3.481   2.397   3.130
 3840SOL    HW211853   3.601   2.430   3.024
 3841SOL     OW11854   2.114   3.426   3.606
 3841SOL    HW111855   2.084   3.483   3.682
 3841SOL    HW211856   2.107   3.329   3.632
 3842SOL     OW11857   2.533   2.326   3.131
 3842SOL    HW111858   2.499   2.237   3.101
 3842SOL    HW211859   2.559   2.380   3.051
 3843SOL     OW11860   2.792   3.540   3.327
 3843SOL    HW111861   2.768   3.522   3.232
 3843SOL    HW211862   2.822   3.634   3.337
 3844SOL     OW11863   2.335   2.362   2.053
 3844SOL    HW111864   2.396   2.442   2.057
 3844SOL    HW211865   2.240   2.393   2.060
 3845SOL     OW11866   2.021   2.999   3.328
 3845SOL    HW111867   2.043   2.938   3.404
 3845SOL    HW211868   2.031   2.950   3.242
 3846SOL     OW11869   3.209   2.921   3.096
 3846SOL    HW111870   3.233   2.858   3.022
 3846SOL    HW211871   3.119   2.961   3.078
 3847SOL     OW11872   3.164   2.717   2.171
 3847SOL    HW111873   3.078   2.686   2.213
 3847SOL    HW211874   3.160   2.703   2.072
 3848SOL     OW11875   3.621   3.609   3.016
 3848SOL    HW111876   3.682   3.639   2.943
 3848SOL    HW211877   3.583   3.520   2.994
 3849SOL     OW11878   3.114   3.593   2.990
 3849SOL    HW111879   3.198   3.598   2.936
 3849SOL    HW211880   3.091   3.497   3.008
 3850SOL     OW11881   1.945   3.120   2.884
 3850SOL    HW111882   1.940   3.119   2.984
 3850SOL    HW211883   1.862   3.079   2.846
 3851SOL     OW11884   2.550   3.524   3.578
 3851SOL    HW111885   2.494   3.605   3.587
 3851SOL    HW211886   2.602   3.528   3.492
 3852SOL     OW11887   3.588   1.997   2.385
 3852SOL    HW111888   3.661   1.980   2.318
 3852SOL    HW211889   3.557   1.910   2.423
 3853SOL     OW11890   3.250   3.435   2.339
 3853SOL    HW111891   3.317   3.447   2.265
 3853SOL    HW211892   3.210   3.524   2.362
 3854SOL     OW11893   1.992   3.656   3.713
 3854SOL    HW111894   1.951   3.582   3.766
 3854SOL    HW211895   2.056   3.707   3.771
 3855SOL     OW11896   3.142   2.789   2.534
 3855SOL    HW111897   3.202   2.708   2.536
 3855SOL    HW211898   3.182   2.858   2.474
 3856SOL     OW11899   2.692   3.135   3.284
 3856SOL    HW111900   2.687   3.168   3.379
 3856SOL    HW211901   2.606   3.154   3.238
 3857SOL     OW11902   2.534   3.478   2.016
 3857SOL    HW111903   2.543   3.488   1.917
 3857SOL    HW211904   2.494   3.389   2.037
 3858SOL     OW11905   3.512   3.582   3.256
 3858SOL    HW111906   3.565   3.592   3.172
 3858SOL    HW211907   3.485   3.672   3.290
 3859SOL     OW11908   3.703   2.037   2.825
 3859SOL    HW111909   3.742   1.952   2.789
 3859SOL    HW211910   3.605   2.039   2.806
 3860SOL     OW11911   2.125   2.188   2.582
 3860SOL    HW111912   2.046   2.239   2.548
 3860SOL    HW211913   2.116   2.173   2.680
 3861SOL     OW11914   3.056   3.474   1.893
 3861SOL    HW111915   3.062   3.381   1.930
 3861SOL    HW211916   2.997   3.474   1.813
 3862SOL     OW11917   3.366   3.469   1.906
 3862SOL    HW111918   3.274   3.506   1.913
 3862SOL    HW211919   3.404   3.489   1.816
 3863SOL     OW11920   2.234   3.150   3.352
 3863SOL    HW111921   2.221   3.243   3.318
 3863SOL    HW211922   2.150   3.098   3.339
 3864SOL     OW11923   3.476   3.154   3.151
 3864SOL    HW111924   3.536   3.157   3.231
 3864SOL    HW211925   3.401   3.218   3.164
 3865SOL     OW11926   2.901   2.960   2.558
 3865SOL    HW111927   2.831   2.913   2.612
 3865SOL    HW211928   2.960   2.892   2.515
 3866SOL     OW11929   2.876   2.098   2.833
 3866SOL    HW111930   2.868   2.062   2.740
 3866SOL    HW211931   2.874   2.022   2.898
 3867SOL     OW11932   2.452   3.349   2.353
 3867SOL    HW111933   2.494   3.291   2.283
 3867SOL    HW211934   2.408   3.428   2.309
 3868SOL     OW11935   3.571   2.247   3.243
 3868SOL    HW111936   3.644   2.316   3.247
 3868SOL    HW211937   3.599   2.172   3.184
 3869SOL     OW11938   2.117   3.210   2.152
 3869SOL    HW111939   2.021   3.211   2.125
 3869SOL    HW211940   2.129   3.263   2.236
 3870SOL     OW11941   1.967   2.875   3.588
 3870SOL    HW111942   1.890   2.842   3.642
 3870SOL    HW211943   2.052   2.845   3.630
 3871SOL     OW11944   2.534   2.065   3.351
 3871SOL    HW111945   2.624   2.049   3.311
 3871SOL    HW211946   2.542   2.070   3.450
 3872SOL     OW11947   1.937   2.207   1.895
 3872SOL    HW111948   1.845   2.179   1.866
 3872SOL    HW211949   1.968   2.284   1.839
 3873SOL     OW11950   3.302   2.718   3.260
 3873SOL    HW111951   3.245   2.770   3.197
 3873SOL    HW211952   3.398   2.730   3.236
 3874SOL     OW11953   1.934   2.028   2.180
 3874SOL    HW111954   1.917   2.111   2.126
 3874SOL    HW211955   2.024   1.991   2.158
 3875SOL     OW11956   3.045   3.197   1.981
 3875SOL    HW111957   2.946   3.186   1.983
 3875SOL    HW211958   3.079   3.212   2.074
 3876SOL     OW11959   3.355   3.629   2.821
 3876SOL    HW111960   3.388   3.693   2.752
 3876SOL    HW211961   3.421   3.623   2.896
 3877SOL     OW11962   3.312   3.082   3.495
 3877SOL    HW111963   3.303   3.072   3.594
 3877SOL    HW211964   3.408   3.075   3.469
 3878SOL     OW11965   2.252   3.603   3.422
 3878SOL    HW111966   2.161   3.644   3.420
 3878SOL    HW211967   2.245   3.509   3.454
 3879SOL     OW11968   3.536   2.745   3.116
 3879SOL    HW111969   3.509   2.656   3.079
 3879SOL    HW211970   3.537   2.813   3.043
 3880SOL     OW11971   3.087   2.187   2.311
 3880SOL    HW111972   3.152   2.113   2.300
 3880SOL    HW211973   3.107   2.237   2.395
 3881SOL     OW11974   3.639   2.204   3.504
 3881SOL    HW111975   3.622   2.235   3.410
 3881SOL    HW211976   3.555   2.167   3.542
 3882SOL     OW11977   3.592   2.796   3.379
 3882SOL    HW111978   3.630   2.887   3.394
 3882SOL    HW211979   3.584   2.779   3.280
 3883SOL     OW11980   2.721   3.236   1.878
 3883SOL    HW111981   2.675   3.251   1.966
 3883SOL    HW211982   2.765   3.321   1.848
 3884SOL     OW11983   2.523   3.652   2.815
 3884SOL    HW111984   2.477   3.740   2.802
 3884SOL    HW211985   2.622   3.664   2.808
 3885SOL     OW11986   2.945   2.846   1.949
 3885SOL    HW111987   2.922   2.899   1.867
 3885SOL    HW211988   3.026   2.790   1.930
 3886SOL     OW11989   3.723   3.431   2.713
 3886SOL    HW111990   3.652   3.419   2.643
 3886SOL    HW211991   3.724   3.352   2.773
 3887SOL     OW11992   2.083   3.176   3.706
 3887SOL    HW111993   2.018   3.103   3.685
 3887SOL    HW211994   2.087   3.190   3.804
 3888SOL     OW11995   1.941   3.102   2.515
 3888SOL    HW111996   1.940   3.055   2.603
 3888SOL    HW211997   2.023   3.074   2.464
 3889SOL     OW11998   2.534   3.253   3.486
 3889SOL    HW111999   2.456   3.203   3.524
 3889SOL    HW212000   2.531   3.348   3.517
 3890SOL     OW12001   3.686   2.054   3.089
 3890SOL    HW112002   3.682   1.964   3.133
 3890SOL    HW212003   3.689   2.043   2.990
 3891SOL     OW12004   2.290   2.286   2.382
 3891SOL    HW112005   2.320   2.214   2.320
 3891SOL    HW212006   2.251   2.246   2.465
 3892SOL     OW12007   3.567   3.349   2.966
 3892SOL    HW112008   3.474   3.324   2.939
 3892SOL    HW212009   3.593   3.299   3.048
 3893SOL     OW12010   2.179   2.409   3.142
 3893SOL    HW112011   2.217   2.350   3.214
 3893SOL    HW212012   2.219   2.383   3.054
 3894SOL     OW12013   2.674   3.448   2.549
 3894SOL    HW112014   2.706   3.458   2.455
 3894SOL    HW212015   2.595   3.386   2.551
 3895SOL     OW12016   3.286   2.076   2.974
 3895SOL    HW112017   3.338   2.011   3.029
 3895SOL    HW212018   3.237   2.139   3.035
 3896SOL     OW12019   2.863   1.896   3.016
 3896SOL    HW112020   2.800   1.824   2.985
 3896SOL    HW212021   2.956   1.860   3.016
 3897SOL     OW12022   2.632   3.192   2.163
 3897SOL    HW112023   2.586   3.105   2.180
 3897SOL    HW212024   2.723   3.189   2.204
 3898SOL     OW12025   2.480   3.429   3.146
 3898SOL    HW112026   2.475   3.511   3.203
 3898SOL    HW212027   2.569   3.426   3.101
 3899SOL     OW12028   3.214   1.914   2.030
 3899SOL    HW112029   3.249   1.873   1.946
 3899SOL    HW212030   3.124   1.876   2.050
 3900SOL     OW12031   3.162   2.315   2.553
 3900SOL    HW112032   3.103   2.395   2.557
 3900SOL    HW212033   3.177   2.280   2.646
 3901SOL     OW12034   3.455   2.083   2.744
 3901SOL    HW112035   3.371   2.082   2.798
 3901SOL    HW212036   3.457   2.166   2.688
 3902SOL     OW12037   1.901   2.939   2.162
 3902SOL    HW112038   2.000   2.928   2.153
 3902SOL    HW212039   1.861   2.853   2.194
 3903SOL     OW12040   2.737   3.508   2.199
 3903SOL    HW112041   2.660   3.473   2.145
 3903SOL    HW212042   2.705   3.579   2.261
 3904SOL     OW12043   2.087   2.137   4.720
 3904SOL    HW112044   2.122   2.120   4.812
 3904SOL    HW212045   1.999   2.092   4.708
 3905SOL     OW12046   1.881   2.230   4.371
 3905SOL    HW112047   1.799   2.273   4.410
 3905SOL    HW212048   1.853   2.157   4.308
 3906SOL     OW12049   2.431   3.137   4.889
 3906SOL    HW112050   2.338   3.130   4.852
 3906SOL    HW212051   2.442   3.226   4.933
 3907SOL     OW12052   3.417   3.373   4.427
 3907SOL    HW112053   3.360   3.357   4.508
 3907SOL    HW212054   3.358   3.383   4.347
 3908SOL     OW12055   3.617   2.469   3.955
 3908SOL    HW112056   3.605   2.456   3.856
 3908SOL    HW212057   3.587   2.388   4.004
 3909SOL     OW12058   2.630   3.006   4.747
 3909SOL    HW112059   2.552   3.023   4.807
 3909SOL    HW212060   2.664   3.093   4.711
 3910SOL     OW12061   2.548   3.023   5.527
 3910SOL    HW112062   2.608   3.102   5.541
 3910SOL    HW212063   2.462   3.054   5.486
 3911SOL     OW12064   2.197   3.297   4.785
 3911SOL    HW112065   2.119   3.266   4.732
 3911SOL    HW212066   2.255   3.355   4.728
 3912SOL     OW12067   3.322   3.367   5.063
 3912SOL    HW112068   3.346   3.461   5.089
 3912SOL    HW212069   3.306   3.313   5.145
 3913SOL     OW12070   2.300   2.254   5.223
 3913SOL    HW112071   2.382   2.198   5.232
 3913SOL    HW212072   2.219   2.196   5.227
 3914SOL     OW12073   3.465   2.309   4.461
 3914SOL    HW112074   3.391   2.355   4.411
 3914SOL    HW212075   3.516   2.377   4.514
 3915SOL     OW12076   2.093   3.575   4.207
 3915SOL    HW112077   2.127   3.652   4.261
 3915SOL    HW212078   2.137   3.575   4.117
 3916SOL     OW12079   2.989   3.203   5.414
 3916SOL    HW112080   3.036   3.203   5.502
 3916SOL    HW212081   2.941   3.116   5.403
 3917SOL     OW12082   2.092   3.296   4.262
 3917SOL    HW112083   2.066   3.392   4.262
 3917SOL    HW212084   2.021   3.242   4.307
 3918SOL     OW12085   2.102   2.953   4.610
 3918SOL    HW112086   2.116   2.869   4.662
 3918SOL    HW212087   2.047   3.017   4.665
 3919SOL     OW12088   2.482   3.648   5.163
 3919SOL    HW112089   2.390   3.631   5.198
 3919SOL    HW212090   2.510   3.740   5.189
 3920SOL     OW12091   2.468   2.826   3.847
 3920SOL    HW112092   2.475   2.910   3.793
 3920SOL    HW212093   2.514   2.839   3.935
 3921SOL     OW12094   3.456   1.976   5.204
 3921SOL    HW112095   3.438   2.043   5.132
 3921SOL    HW212096   3.453   2.022   5.293
 3922SOL     OW12097   3.704   3.629   4.083
 3922SOL    HW112098   3.758   3.600   4.163
 3922SOL    HW212099   3.734   3.719   4.054
 3923SOL     OW12100   1.889   3.458   3.841
 3923SOL    HW112101   1.870   3.362   3.862
 3923SOL    HW212102   1.856   3.516   3.916
 3924SOL     OW12103   3.551   2.784   4.336
 3924SOL    HW112104   3.646   2.755   4.344
 3924SOL    HW212105   3.543   2.849   4.261
 3925SOL     OW12106   3.503   2.970   4.156
 3925SOL    HW112107   3.589   2.972   4.104
 3925SOL    HW212108   3.517   3.017   4.244
 3926SOL     OW12109   1.975   2.599   5.321
 3926SOL    HW112110   2.063   2.586   5.366
 3926SOL    HW212111   1.962   2.696   5.299
 3927SOL     OW12112   2.475   3.227   4.450
 3927SOL    HW112113   2.426   3.140   4.459
 3927SOL    HW212114   2.452   3.270   4.363
 3928SOL     OW12115   3.155   3.090   5.147
 3928SOL    HW112116   3.192   3.017   5.089
 3928SOL    HW212117   3.207   3.095   5.232
 3929SOL     OW12118   2.671   1.866   4.226
 3929SOL    HW112119   2.711   1.957   4.217
 3929SOL    HW212120   2.571   1.874   4.232
 3930SOL     OW12121   2.059   2.838   4.988
 3930SOL    HW112122   2.148   2.793   4.974
 3930SOL    HW212123   1.986   2.773   4.969
 3931SOL     OW12124   3.387   2.861   3.914
 3931SOL    HW112125   3.324   2.785   3.927
 3931SOL    HW212126   3.435   2.879   4.000
 3932SOL     OW12127   3.049   3.654   5.340
 3932SOL    HW112128   3.073   3.714   5.264
 3932SOL    HW212129   3.056   3.559   5.310
 3933SOL     OW12130   2.179   2.113   5.525
 3933SOL    HW112131   2.250   2.184   5.531
 3933SOL    HW212132   2.091   2.152   5.553
 3934SOL     OW12133   3.328   3.279   4.677
 3934SOL    HW112134   3.269   3.285   4.757
 3934SOL    HW212135   3.313   3.191   4.631
 3935SOL     OW12136   3.529   3.576   4.296
 3935SOL    HW112137   3.488   3.553   4.208
 3935SOL    HW212138   3.511   3.502   4.361
 3936SOL     OW12139   3.143   2.207   4.668
 3936SOL    HW112140   3.057   2.157   4.655
 3936SOL    HW212141   3.205   2.153   4.724
 3937SOL     OW12142   3.438   3.524   4.031
 3937SOL    HW112143   3.527   3.570   4.034
 3937SOL    HW212144   3.417   3.500   3.936
 3938SOL     OW12145   3.256   2.331   5.398
 3938SOL    HW112146   3.236   2.374   5.486
 3938SOL    HW212147   3.334   2.269   5.407
 3939SOL     OW12148   2.853   2.272   4.966
 3939SOL    HW112149   2.776   2.306   5.020
 3939SOL    HW212150   2.819   2.221   4.887
 3940SOL     OW12151   1.938   2.673   4.513
 3940SOL    HW112152   2.037   2.661   4.522
 3940SOL    HW212153   1.914   2.768   4.534
 3941SOL     OW12154   1.992   3.683   5.295
 3941SOL    HW112155   1.982   3.668   5.394
 3941SOL    HW212156   1.906   3.719   5.259
 3942SOL     OW12157   3.581   2.447   5.555
 3942SOL    HW112158   3.555   2.536   5.519
 3942SOL    HW212159   3.579   2.379   5.482
 3943SOL     OW12160   2.412   2.058   4.609
 3943SOL    HW112161   2.407   2.053   4.709
 3943SOL    HW212162   2.414   2.154   4.580
 3944SOL     OW12163   2.870   3.318   4.201
 3944SOL    HW112164   2.824   3.390   4.149
 3944SOL    HW212165   2.866   3.338   4.299
 3945SOL     OW12166   2.213   3.663   4.577
 3945SOL    HW112167   2.263   3.577   4.583
 3945SOL    HW212168   2.278   3.740   4.574
 3946SOL     OW12169   3.657   2.928   4.597
 3946SOL    HW112170   3.595   2.913   4.521
 3946SOL    HW212171   3.605   2.939   4.682
 3947SOL     OW12172   3.089   3.412   5.230
 3947SOL    HW112173   3.095   3.335   5.294
 3947SOL    HW212174   3.037   3.386   5.150
 3948SOL     OW12175   3.320   2.597   4.452
 3948SOL    HW112176   3.315   2.532   4.527
 3948SOL    HW212177   3.400   2.656   4.465
 3949SOL     OW12178   2.323   3.128   5.451
 3949SOL    HW112179   2.273   3.129   5.365
 3949SOL    HW212180   2.260   3.110   5.527
 3950SOL     OW12181   2.973   3.638   3.961
 3950SOL    HW112182   2.913   3.576   4.011
 3950SOL    HW212183   3.004   3.594   3.876
 3951SOL     OW12184   2.064   2.147   5.222
 3951SOL    HW112185   1.984   2.207   5.209
 3951SOL    HW212186   2.054   2.098   5.308
 3952SOL     OW12187   3.494   3.239   3.805
 3952SOL    HW112188   3.462   3.333   3.795
 3952SOL    HW212189   3.418   3.176   3.793
 3953SOL     OW12190   2.326   3.605   4.047
 3953SOL    HW112191   2.359   3.644   4.133
 3953SOL    HW212192   2.402   3.598   3.982
 3954SOL     OW12193   3.262   1.969   4.150
 3954SOL    HW112194   3.238   1.932   4.060
 3954SOL    HW212195   3.361   1.985   4.154
 3955SOL     OW12196   2.111   3.647   4.965
 3955SOL    HW112197   2.168   3.582   5.015
 3955SOL    HW212198   2.095   3.614   4.872
 3956SOL     OW12199   2.802   3.560   4.628
 3956SOL    HW112200   2.882   3.503   4.649
 3956SOL    HW212201   2.753   3.520   4.551
 3957SOL     OW12202   3.409   2.084   5.453
 3957SOL    HW112203   3.404   2.121   5.545
 3957SOL    HW212204   3.337   2.015   5.441
 3958SOL     OW12205   2.476   1.984   3.841
 3958SOL    HW112206   2.574   1.962   3.848
 3958SOL    HW212207   2.445   1.967   3.748
 3959SOL     OW12208   2.643   2.126   5.473
 3959SOL    HW112209   2.710   2.065   5.516
 3959SOL    HW212210   2.570   2.145   5.538
 3960SOL     OW12211   2.750   3.376   4.919
 3960SOL    HW112212   2.727   3.351   4.825
 3960SOL    HW212213   2.811   3.307   4.958
 3961SOL     OW12214   3.213   2.452   5.157
 3961SOL    HW112215   3.241   2.409   5.242
 3961SOL    HW212216   3.238   2.548   5.158
 3962SOL     OW12217   2.665   3.264   4.648
 3962SOL    HW112218   2.755   3.278   4.606
 3962SOL    HW212219   2.594   3.266   4.577
 3963SOL     OW12220   2.401   1.926   4.236
 3963SOL    HW112221   2.320   1.927   4.294
 3963SOL    HW212222   2.404   2.009   4.181
 3964SOL     OW12223   3.296   3.050   3.765
 3964SOL    HW112224   3.328   2.974   3.822
 3964SOL    HW212225   3.204   3.077   3.795
 3965SOL     OW12226   2.159   1.897   3.895
 3965SOL    HW112227   2.208   1.981   3.874
 3965SOL    HW212228   2.221   1.832   3.940
 3966SOL     OW12229   2.938   2.545   5.188
 3966SOL    HW112230   2.858   2.484   5.191
 3966SOL    HW212231   3.019   2.492   5.164
 3967SOL     OW12232   3.089   3.432   4.517
 3967SOL    HW112233   3.110   3.506   4.452
 3967SOL    HW212234   3.157   3.432   4.590
 3968SOL     OW12235   3.133   3.659   4.315
 3968SOL    HW112236   3.177   3.723   4.251
 3968SOL    HW212237   3.083   3.711   4.385
 3969SOL     OW12238   1.940   2.418   5.110
 3969SOL    HW112239   2.032   2.417   5.069
 3969SOL    HW212240   1.934   2.492   5.177
 3970SOL     OW12241   2.423   2.084   4.871
 3970SOL    HW112242   2.461   2.000   4.908
 3970SOL    HW212243   2.335   2.103   4.915
 3971SOL     OW12244   2.879   1.901   4.477
 3971SOL    HW112245   2.807   1.906   4.408
 3971SOL    HW212246   2.855   1.832   4.546
 3972SOL     OW12247   3.291   3.035   4.591
 3972SOL    HW112248   3.236   2.951   4.584
 3972SOL    HW212249   3.317   3.064   4.499
 3973SOL     OW12250   3.328   2.452   4.716
 3973SOL    HW112251   3.298   2.357   4.723
 3973SOL    HW212252   3.401   2.468   4.782
 3974SOL     OW12253   3.719   2.695   4.101
 3974SOL    HW112254   3.761   2.631   4.165
 3974SOL    HW212255   3.681   2.644   4.023
 3975SOL     OW12256   3.526   3.142   4.381
 3975SOL    HW112257   3.625   3.150   4.395
 3975SOL    HW212258   3.481   3.226   4.412
 3976SOL     OW12259   3.616   3.085   5.312
 3976SOL    HW112260   3.707   3.046   5.299
 3976SOL    HW212261   3.624   3.181   5.336
 3977SOL     OW12262   2.926   3.209   5.064
 3977SOL    HW112263   2.846   3.186   5.119
 3977SOL    HW212264   3.009   3.183   5.113
 3978SOL     OW12265   3.454   3.491   5.349
 3978SOL    HW112266   3.481   3.525   5.259
 3978SOL    HW212267   3.533   3.453   5.395
 3979SOL     OW12268   2.973   3.057   4.824
 3979SOL    HW112269   2.933   3.101   4.905
 3979SOL    HW212270   2.932   3.094   4.741
 3980SOL     OW12271   3.500   2.961   4.803
 3980SOL    HW112272   3.505   3.042   4.862
 3980SOL    HW212273   3.414   2.963   4.752
 3981SOL     OW12274   2.777   1.951   5.126
 3981SOL    HW112275   2.802   1.931   5.031
 3981SOL    HW212276   2.849   2.007   5.168
 3982SOL     OW12277   2.842   2.978   5.443
 3982SOL    HW112278   2.743   2.984   5.453
 3982SOL    HW212279   2.865   2.898   5.387
 3983SOL     OW12280   2.272   2.675   4.975
 3983SOL    HW112281   2.358   2.687   5.025
 3983SOL    HW212282   2.230   2.588   5.002
 3984SOL     OW12283   3.136   2.248   4.986
 3984SOL    HW112284   3.157   2.322   5.050
 3984SOL    HW212285   3.047   2.265   4.943
 3985SOL     OW12286   1.926   3.426   5.055
 3985SOL    HW112287   1.880   3.508   5.021
 3985SOL    HW212288   2.024   3.445   5.064
 3986SOL     OW12289   2.428   2.399   4.589
 3986SOL    HW112290   2.440   2.465   4.515
 3986SOL    HW212291   2.474   2.433   4.672
 3987SOL     OW12292   3.114   3.210   4.112
 3987SOL    HW112293   3.164   3.287   4.152
 3987SOL    HW212294   3.019   3.212   4.144
 3988SOL     OW12295   3.134   3.307   4.866
 3988SOL    HW112296   3.181   3.320   4.953
 3988SOL    HW212297   3.068   3.233   4.875
 3989SOL     OW12298   3.444   2.501   4.196
 3989SOL    HW112299   3.413   2.562   4.269
 3989SOL    HW212300   3.494   2.553   4.127
 3990SOL     OW12301   2.216   3.372   5.053
 3990SOL    HW112302   2.195   3.328   4.966
 3990SOL    HW212303   2.313   3.398   5.056
 3991SOL     OW12304   2.264   2.613   5.322
 3991SOL    HW112305   2.332   2.668   5.275
 3991SOL    HW212306   2.304   2.525   5.349
 3992SOL     OW12307   3.449   2.641   5.394
 3992SOL    HW112308   3.357   2.679   5.389
 3992SOL    HW212309   3.509   2.688   5.329
 3993SOL     OW12310   2.875   1.967   5.494
 3993SOL    HW112311   2.881   2.052   5.442
 3993SOL    HW212312   2.907   1.891   5.437
 3994SOL     OW12313   2.366   1.912   5.464
 3994SOL    HW112314   2.324   1.855   5.394
 3994SOL    HW212315   2.300   1.981   5.496
 3995SOL     OW12316   3.222   2.724   4.769
 3995SOL    HW112317   3.147   2.724   4.703
 3995SOL    HW212318   3.259   2.632   4.778
 3996SOL     OW12319   2.169   2.075   4.955
 3996SOL    HW112320   2.146   2.112   5.045
 3996SOL    HW212321   2.139   1.980   4.949
 3997SOL     OW12322   1.899   3.172   5.006
 3997SOL    HW112323   1.952   3.123   5.074
 3997SOL    HW212324   1.921   3.270   5.011
 3998SOL     OW12325   3.590   2.797   5.578
 3998SOL    HW112326   3.544   2.790   5.489
 3998SOL    HW212327   3.528   2.841   5.644
 3999SOL     OW12328   2.169   1.925   4.342
 3999SOL    HW112329   2.158   2.019   4.375
 3999SOL    HW212330   2.164   1.862   4.419
 4000SOL     OW12331   3.484   2.229   4.098
 4000SOL    HW112332   3.486   2.153   4.162
 4000SOL    HW212333   3.436   2.306   4.138
 4001SOL     OW12334   2.842   3.435   5.424
 4001SOL    HW112335   2.822   3.479   5.336
 4001SOL    HW212336   2.881   3.344   5.408
 4002SOL     OW12337   3.721   3.380   5.329
 4002SOL    HW112338   3.735   3.407   5.234
 4002SOL    HW212339   3.804   3.402   5.382
 4003SOL     OW12340   2.212   2.760   5.528
 4003SOL    HW112341   2.288   2.804   5.576
 4003SOL    HW212342   2.247   2.713   5.446
 4004SOL     OW12343   3.402   2.136   3.849
 4004SOL    HW112344   3.341   2.061   3.872
 4004SOL    HW212345   3.424   2.188   3.932
 4005SOL     OW12346   2.930   3.195   4.573
 4005SOL    HW112347   2.937   3.111   4.518
 4005SOL    HW212348   2.992   3.264   4.537
 4006SOL     OW12349   2.181   2.672   4.673
 4006SOL    HW112350   2.274   2.708   4.678
 4006SOL    HW212351   2.175   2.587   4.725
 4007SOL     OW12352   2.201   2.371   4.730
 4007SOL    HW112353   2.149   2.288   4.713
 4007SOL    HW212354   2.278   2.376   4.666
 4008SOL     OW12355   3.000   2.242   5.402
 4008SOL    HW112356   2.955   2.305   5.466
 4008SOL    HW212357   3.093   2.273   5.385
 4009SOL     OW12358   3.022   2.069   5.201
 4009SOL    HW112359   3.022   2.133   5.278
 4009SOL    HW212360   3.050   2.117   5.118
 4010SOL     OW12361   1.870   3.188   3.924
 4010SOL    HW112362   1.777   3.209   3.893
 4010SOL    HW212363   1.880   3.089   3.937
 4011SOL     OW12364   1.950   3.663   4.651
 4011SOL    HW112365   1.908   3.577   4.624
 4011SOL    HW212366   2.044   3.666   4.617
 4012SOL     OW12367   2.366   3.430   4.634
 4012SOL    HW112368   2.432   3.504   4.643
 4012SOL    HW212369   2.410   3.351   4.592
 4013SOL     OW12370   1.902   2.406   4.838
 4013SOL    HW112371   1.987   2.373   4.797
 4013SOL    HW212372   1.915   2.421   4.936
 4014SOL     OW12373   2.051   2.382   5.446
 4014SOL    HW112374   2.110   2.342   5.376
 4014SOL    HW212375   1.993   2.453   5.405
 4015SOL     OW12376   3.231   2.812   5.384
 4015SOL    HW112377   3.270   2.901   5.404
 4015SOL    HW212378   3.241   2.792   5.287
 4016SOL     OW12379   3.519   2.466   4.930
 4016SOL    HW112380   3.481   2.397   4.992
 4016SOL    HW212381   3.601   2.430   4.886
 4017SOL     OW12382   2.114   3.426   5.468
 4017SOL    HW112383   2.084   3.483   5.544
 4017SOL    HW212384   2.107   3.329   5.494
 4018SOL     OW12385   2.533   2.326   4.993
 4018SOL    HW112386   2.499   2.237   4.963
 4018SOL    HW212387   2.559   2.380   4.913
 4019SOL     OW12388   2.792   3.540   5.189
 4019SOL    HW112389   2.768   3.522   5.094
 4019SOL    HW212390   2.822   3.634   5.199
 4020SOL     OW12391   2.021   2.999   5.190
 4020SOL    HW112392   2.043   2.938   5.266
 4020SOL    HW212393   2.031   2.950   5.104
 4021SOL     OW12394   3.209   2.921   4.958
 4021SOL    HW112395   3.233   2.858   4.884
 4021SOL    HW212396   3.119   2.961   4.940
 4022SOL     OW12397   3.621   3.609   4.878
 4022SOL    HW112398   3.682   3.639   4.805
 4022SOL    HW212399   3.583   3.520   4.856
 4023SOL     OW12400   3.114   3.593   4.852
 4023SOL    HW112401   3.198   3.598   4.798
 4023SOL    HW212402   3.091   3.497   4.870
 4024SOL     OW12403   1.945   3.120   4.746
 4024SOL    HW112404   1.940   3.119   4.846
 4024SOL    HW212405   1.862   3.079   4.708
 4025SOL     OW12406   2.550   3.524   5.440
 4025SOL    HW112407   2.494   3.605   5.449
 4025SOL    HW212408   2.602   3.528   5.354
 4026SOL     OW12409   3.588   1.997   4.247
 4026SOL    HW112410   3.661   1.980   4.180
 4026SOL    HW212411   3.557   1.910   4.285
 4027SOL     OW12412   3.250   3.435   4.201
 4027SOL    HW112413   3.317   3.447   4.127
 4027SOL    HW212414   3.210   3.524   4.224
 4028SOL     OW12415   1.992   3.656   5.575
 4028SOL    HW112416   1.951   3.582   5.628
 4028SOL    HW212417   2.056   3.707   5.633
 4029SOL     OW12418   2.692   3.135   5.146
 4029SOL    HW112419   2.687   3.168   5.241
 4029SOL    HW212420   2.606   3.154   5.100
 4030SOL     OW12421   3.512   3.582   5.118
 4030SOL    HW112422   3.565   3.592   5.034
 4030SOL    HW212423   3.485   3.672   5.152
 4031SOL     OW12424   3.703   2.037   4.687
 4031SOL    HW112425   3.742   1.952   4.651
 4031SOL    HW212426   3.605   2.039   4.668
 4032SOL     OW12427   2.125   2.188   4.444
 4032SOL    HW112428   2.046   2.239   4.410
 4032SOL    HW212429   2.116   2.173   4.542
 4033SOL     OW12430   3.056   3.474   3.755
 4033SOL    HW112431   3.062   3.381   3.792
 4033SOL    HW212432   2.997   3.474   3.675
 4034SOL     OW12433   3.366   3.469   3.768
 4034SOL    HW112434   3.274   3.506   3.775
 4034SOL    HW212435   3.404   3.489   3.678
 4035SOL     OW12436   2.234   3.150   5.214
 4035SOL    HW112437   2.221   3.243   5.180
 4035SOL    HW212438   2.150   3.098   5.201
 4036SOL     OW12439   3.476   3.154   5.013
 4036SOL    HW112440   3.536   3.157   5.093
 4036SOL    HW212441   3.401   3.218   5.026
 4037SOL     OW12442   2.876   2.098   4.695
 4037SOL    HW112443   2.868   2.062   4.602
 4037SOL    HW212444   2.874   2.022   4.760
 4038SOL     OW12445   2.452   3.349   4.215
 4038SOL    HW112446   2.494   3.291   4.145
 4038SOL    HW212447   2.408   3.428   4.171
 4039SOL     OW12448   3.571   2.247   5.105
 4039SOL    HW112449   3.644   2.316   5.109
 4039SOL    HW212450   3.599   2.172   5.046
 4040SOL     OW12451   2.117   3.210   4.014
 4040SOL    HW112452   2.021   3.211   3.987
 4040SOL    HW212453   2.129   3.263   4.098
 4041SOL     OW12454   1.967   2.875   5.450
 4041SOL    HW112455   1.890   2.842   5.504
 4041SOL    HW212456   2.052   2.845   5.492
 4042SOL     OW12457   2.534   2.065   5.213
 4042SOL    HW112458   2.624   2.049   5.173
 4042SOL    HW212459   2.542   2.070   5.312
 4043SOL     OW12460   1.937   2.207   3.757
 4043SOL    HW112461   1.845   2.179   3.728
 4043SOL    HW212462   1.968   2.284   3.701
 4044SOL     OW12463   3.302   2.718   5.122
 4044SOL    HW112464   3.245   2.770   5.059
 4044SOL    HW212465   3.398   2.730   5.098
 4045SOL     OW12466   1.934   2.028   4.042
 4045SOL    HW112467   1.917   2.111   3.988
 4045SOL    HW212468   2.024   1.991   4.020
 4046SOL     OW12469   3.355   3.629   4.683
 4046SOL    HW112470   3.388   3.693   4.614
 4046SOL    HW212471   3.421   3.623   4.758
 4047SOL     OW12472   3.312   3.082   5.357
 4047SOL    HW112473   3.303   3.072   5.456
 4047SOL    HW212474   3.408   3.075   5.331
 4048SOL     OW12475   2.252   3.603   5.284
 4048SOL    HW112476   2.161   3.644   5.282
 4048SOL    HW212477   2.245   3.509   5.316
 4049SOL     OW12478   3.536   2.745   4.978
 4049SOL    HW112479   3.509   2.656   4.941
 4049SOL    HW212480   3.537   2.813   4.905
 4050SOL     OW12481   3.639   2.204   5.366
 4050SOL    HW112482   3.622   2.235   5.272
 4050SOL    HW212483   3.555   2.167   5.404
 4051SOL     OW12484   3.592   2.796   5.241
 4051SOL    HW112485   3.630   2.887   5.256
 4051SOL    HW212486   3.584   2.779   5.142
 4052SOL     OW12487   2.523   3.652   4.677
 4052SOL    HW112488   2.477   3.740   4.664
 4052SOL    HW212489   2.622   3.664   4.670
 4053SOL     OW12490   3.723   3.431   4.575
 4053SOL    HW112491   3.652   3.419   4.505
 4053SOL    HW212492   3.724   3.352   4.635
 4054SOL     OW12493   2.083   3.176   5.568
 4054SOL    HW112494   2.018   3.103   5.547
 4054SOL    HW212495   2.087   3.190   5.666
 4055SOL     OW12496   2.534   3.253   5.348
 4055SOL    HW112497   2.456   3.203   5.386
 4055SOL    HW212498   2.531   3.348   5.379
 4056SOL     OW12499   3.686   2.054   4.951
 4056SOL    HW112500   3.682   1.964   4.995
 4056SOL    HW212501   3.689   2.043   4.852
 4057SOL     OW12502   3.567   3.349   4.828
 4057SOL    HW112503   3.474   3.324   4.801
 4057SOL    HW212504   3.593   3.299   4.910
 4058SOL     OW12505   2.179   2.409   5.004
 4058SOL    HW112506   2.217   2.350   5.076
 4058SOL    HW212507   2.219   2.383   4.916
 4059SOL     OW12508   2.674   3.448   4.411
 4059SOL    HW112509   2.706   3.458   4.317
 4059SOL    HW212510   2.595   3.386   4.413
 4060SOL     OW12511   3.286   2.076   4.836
 4060SOL    HW112512   3.338   2.011   4.891
 4060SOL    HW212513   3.237   2.139   4.897
 4061SOL     OW12514   2.863   1.896   4.878
 4061SOL    HW112515   2.800   1.824   4.847
 4061SOL    HW212516   2.956   1.860   4.878
 4062SOL     OW12517   2.480   3.429   5.008
 4062SOL    HW112518   2.475   3.511   5.065
 4062SOL    HW212519   2.569   3.426   4.963
 4063SOL     OW12520   3.214   1.914   3.892
 4063SOL    HW112521   3.249   1.873   3.808
 4063SOL    HW212522   3.124   1.876   3.912
 4064SOL     OW12523   3.455   2.083   4.606
 4064SOL    HW112524   3.371   2.082   4.660
 4064SOL    HW212525   3.457   2.166   4.550
 4065SOL     OW12526   1.901   2.939   4.024
 4065SOL    HW112527   2.000   2.928   4.015
 4065SOL    HW212528   1.861   2.853   4.056
 4066SOL     OW12529   2.737   3.508   4.061
 4066SOL    HW112530   2.660   3.473   4.007
 4066SOL    HW212531   2.705   3.579   4.123
 4067SOL     OW12532   2.092   2.490   5.699
 4067SOL    HW112533   1.999   2.488   5.736
 4067SOL    HW212534   2.093   2.451   5.607
 4068SOL     OW12535   2.087   2.137   6.582
 4068SOL    HW112536   2.122   2.120   6.674
 4068SOL    HW212537   1.999   2.092   6.570
 4069SOL     OW12538   1.881   2.230   6.233
 4069SOL    HW112539   1.799   2.273   6.272
 4069SOL    HW212540   1.853   2.157   6.170
 4070SOL     OW12541   2.431   3.137   6.751
 4070SOL    HW112542   2.338   3.130   6.714
 4070SOL    HW212543   2.442   3.226   6.795
 4071SOL     OW12544   3.417   3.373   6.289
 4071SOL    HW112545   3.360   3.357   6.370
 4071SOL    HW212546   3.358   3.383   6.209
 4072SOL     OW12547   2.997   2.565   6.303
 4072SOL    HW112548   3.054   2.643   6.278
 4072SOL    HW212549   2.937   2.591   6.379
 4073SOL     OW12550   3.617   2.469   5.817
 4073SOL    HW112551   3.605   2.456   5.718
 4073SOL    HW212552   3.587   2.388   5.866
 4074SOL     OW12553   2.630   3.006   6.609
 4074SOL    HW112554   2.552   3.023   6.669
 4074SOL    HW212555   2.664   3.093   6.573
 4075SOL     OW12556   2.548   3.023   7.389
 4075SOL    HW112557   2.608   3.102   7.403
 4075SOL    HW212558   2.462   3.054   7.348
 4076SOL     OW12559   2.197   3.297   6.647
 4076SOL    HW112560   2.119   3.266   6.594
 4076SOL    HW212561   2.255   3.355   6.590
 4077SOL     OW12562   3.322   3.367   6.925
 4077SOL    HW112563   3.346   3.461   6.951
 4077SOL    HW212564   3.306   3.313   7.007
 4078SOL     OW12565   2.300   2.254   7.085
 4078SOL    HW112566   2.382   2.198   7.094
 4078SOL    HW212567   2.219   2.196   7.089
 4079SOL     OW12568   3.465   2.309   6.323
 4079SOL    HW112569   3.391   2.355   6.273
 4079SOL    HW212570   3.516   2.377   6.376
 4080SOL     OW12571   2.093   3.575   6.069
 4080SOL    HW112572   2.127   3.652   6.123
 4080SOL    HW212573   2.137   3.575   5.979
 4081SOL     OW12574   2.989   3.203   7.276
 4081SOL    HW112575   3.036   3.203   7.364
 4081SOL    HW212576   2.941   3.116   7.265
 4082SOL     OW12577   2.092   3.296   6.124
 4082SOL    HW112578   2.066   3.392   6.124
 4082SOL    HW212579   2.021   3.242   6.169
 4083SOL     OW12580   2.102   2.953   6.472
 4083SOL    HW112581   2.116   2.869   6.524
 4083SOL    HW212582   2.047   3.017   6.527
 4084SOL     OW12583   2.482   3.648   7.025
 4084SOL    HW112584   2.390   3.631   7.060
 4084SOL    HW212585   2.510   3.740   7.051
 4085SOL     OW12586   2.468   2.826   5.709
 4085SOL    HW112587   2.475   2.910   5.655
 4085SOL    HW212588   2.514   2.839   5.797
 4086SOL     OW12589   3.456   1.976   7.066
 4086SOL    HW112590   3.438   2.043   6.994
 4086SOL    HW212591   3.453   2.022   7.155
 4087SOL     OW12592   1.984   2.505   6.149
 4087SOL    HW112593   1.939   2.417   6.166
 4087SOL    HW212594   1.983   2.559   6.233
 4088SOL     OW12595   3.704   3.629   5.945
 4088SOL    HW112596   3.758   3.600   6.025
 4088SOL    HW212597   3.734   3.719   5.916
 4089SOL     OW12598   1.889   3.458   5.703
 4089SOL    HW112599   1.870   3.362   5.724
 4089SOL    HW212600   1.856   3.516   5.778
 4090SOL     OW12601   3.551   2.784   6.198
 4090SOL    HW112602   3.646   2.755   6.206
 4090SOL    HW212603   3.543   2.849   6.123
 4091SOL     OW12604   3.503   2.970   6.018
 4091SOL    HW112605   3.589   2.972   5.966
 4091SOL    HW212606   3.517   3.017   6.106
 4092SOL     OW12607   1.975   2.599   7.183
 4092SOL    HW112608   2.063   2.586   7.228
 4092SOL    HW212609   1.962   2.696   7.161
 4093SOL     OW12610   2.475   3.227   6.312
 4093SOL    HW112611   2.426   3.140   6.321
 4093SOL    HW212612   2.452   3.270   6.225
 4094SOL     OW12613   3.155   3.090   7.009
 4094SOL    HW112614   3.192   3.017   6.951
 4094SOL    HW212615   3.207   3.095   7.094
 4095SOL     OW12616   2.671   1.866   6.088
 4095SOL    HW112617   2.711   1.957   6.079
 4095SOL    HW212618   2.571   1.874   6.094
 4096SOL     OW12619   2.059   2.838   6.850
 4096SOL    HW112620   2.148   2.793   6.836
 4096SOL    HW212621   1.986   2.773   6.831
 4097SOL     OW12622   3.387   2.861   5.776
 4097SOL    HW112623   3.324   2.785   5.789
 4097SOL    HW212624   3.435   2.879   5.862
 4098SOL     OW12625   3.049   3.654   7.202
 4098SOL    HW112626   3.073   3.714   7.126
 4098SOL    HW212627   3.056   3.559   7.172
 4099SOL     OW12628   2.179   2.113   7.387
 4099SOL    HW112629   2.250   2.184   7.393
 4099SOL    HW212630   2.091   2.152   7.415
 4100SOL     OW12631   3.328   3.279   6.539
 4100SOL    HW112632   3.269   3.285   6.619
 4100SOL    HW212633   3.313   3.191   6.493
 4101SOL     OW12634   3.529   3.576   6.158
 4101SOL    HW112635   3.488   3.553   6.070
 4101SOL    HW212636   3.511   3.502   6.223
 4102SOL     OW12637   3.143   2.207   6.530
 4102SOL    HW112638   3.057   2.157   6.517
 4102SOL    HW212639   3.205   2.153   6.586
 4103SOL     OW12640   3.438   3.524   5.893
 4103SOL    HW112641   3.527   3.570   5.896
 4103SOL    HW212642   3.417   3.500   5.798
 4104SOL     OW12643   3.256   2.331   7.260
 4104SOL    HW112644   3.236   2.374   7.348
 4104SOL    HW212645   3.334   2.269   7.269
 4105SOL     OW12646   2.853   2.272   6.828
 4105SOL    HW112647   2.776   2.306   6.882
 4105SOL    HW212648   2.819   2.221   6.749
 4106SOL     OW12649   1.938   2.673   6.375
 4106SOL    HW112650   2.037   2.661   6.384
 4106SOL    HW212651   1.914   2.768   6.396
 4107SOL     OW12652   1.992   3.683   7.157
 4107SOL    HW112653   1.982   3.668   7.256
 4107SOL    HW212654   1.906   3.719   7.121
 4108SOL     OW12655   2.727   2.210   5.781
 4108SOL    HW112656   2.786   2.273   5.732
 4108SOL    HW212657   2.746   2.116   5.752
 4109SOL     OW12658   3.581   2.447   7.417
 4109SOL    HW112659   3.555   2.536   7.381
 4109SOL    HW212660   3.579   2.379   7.344
 4110SOL     OW12661   3.224   3.006   6.131
 4110SOL    HW112662   3.307   2.977   6.083
 4110SOL    HW212663   3.175   3.073   6.075
 4111SOL     OW12664   2.412   2.058   6.471
 4111SOL    HW112665   2.407   2.053   6.571
 4111SOL    HW212666   2.414   2.154   6.442
 4112SOL     OW12667   2.870   3.318   6.063
 4112SOL    HW112668   2.824   3.390   6.011
 4112SOL    HW212669   2.866   3.338   6.161
 4113SOL     OW12670   2.213   3.663   6.439
 4113SOL    HW112671   2.263   3.577   6.445
 4113SOL    HW212672   2.278   3.740   6.436
 4114SOL     OW12673   3.657   2.928   6.459
 4114SOL    HW112674   3.595   2.913   6.383
 4114SOL    HW212675   3.605   2.939   6.544
 4115SOL     OW12676   3.089   3.412   7.092
 4115SOL    HW112677   3.095   3.335   7.156
 4115SOL    HW212678   3.037   3.386   7.012
 4116SOL     OW12679   2.183   2.805   5.828
 4116SOL    HW112680   2.265   2.844   5.786
 4116SOL    HW212681   2.156   2.723   5.779
 4117SOL     OW12682   3.320   2.597   6.314
 4117SOL    HW112683   3.315   2.532   6.389
 4117SOL    HW212684   3.400   2.656   6.327
 4118SOL     OW12685   2.323   3.128   7.313
 4118SOL    HW112686   2.273   3.129   7.227
 4118SOL    HW212687   2.260   3.110   7.389
 4119SOL     OW12688   2.973   3.638   5.823
 4119SOL    HW112689   2.913   3.576   5.873
 4119SOL    HW212690   3.004   3.594   5.738
 4120SOL     OW12691   2.064   2.147   7.084
 4120SOL    HW112692   1.984   2.207   7.071
 4120SOL    HW212693   2.054   2.098   7.170
 4121SOL     OW12694   3.494   3.239   5.667
 4121SOL    HW112695   3.462   3.333   5.657
 4121SOL    HW212696   3.418   3.176   5.655
 4122SOL     OW12697   2.326   3.605   5.909
 4122SOL    HW112698   2.359   3.644   5.995
 4122SOL    HW212699   2.402   3.598   5.844
 4123SOL     OW12700   3.262   1.969   6.012
 4123SOL    HW112701   3.238   1.932   5.922
 4123SOL    HW212702   3.361   1.985   6.016
 4124SOL     OW12703   2.111   3.647   6.827
 4124SOL    HW112704   2.168   3.582   6.877
 4124SOL    HW212705   2.095   3.614   6.734
 4125SOL     OW12706   2.802   3.560   6.490
 4125SOL    HW112707   2.882   3.503   6.511
 4125SOL    HW212708   2.753   3.520   6.413
 4126SOL     OW12709   2.244   2.562   6.066
 4126SOL    HW112710   2.289   2.472   6.063
 4126SOL    HW212711   2.150   2.551   6.099
 4127SOL     OW12712   3.409   2.084   7.315
 4127SOL    HW112713   3.404   2.121   7.407
 4127SOL    HW212714   3.337   2.015   7.303
 4128SOL     OW12715   2.476   1.984   5.703
 4128SOL    HW112716   2.574   1.962   5.710
 4128SOL    HW212717   2.445   1.967   5.610
 4129SOL     OW12718   2.643   2.126   7.335
 4129SOL    HW112719   2.710   2.065   7.378
 4129SOL    HW212720   2.570   2.145   7.400
 4130SOL     OW12721   2.750   3.376   6.781
 4130SOL    HW112722   2.727   3.351   6.687
 4130SOL    HW212723   2.811   3.307   6.820
 4131SOL     OW12724   3.213   2.452   7.019
 4131SOL    HW112725   3.241   2.409   7.104
 4131SOL    HW212726   3.238   2.548   7.020
 4132SOL     OW12727   2.665   3.264   6.510
 4132SOL    HW112728   2.755   3.278   6.468
 4132SOL    HW212729   2.594   3.266   6.439
 4133SOL     OW12730   2.784   2.365   6.485
 4133SOL    HW112731   2.759   2.356   6.389
 4133SOL    HW212732   2.832   2.283   6.516
 4134SOL     OW12733   2.401   1.926   6.098
 4134SOL    HW112734   2.320   1.927   6.156
 4134SOL    HW212735   2.404   2.009   6.043
 4135SOL     OW12736   3.296   3.050   5.627
 4135SOL    HW112737   3.328   2.974   5.684
 4135SOL    HW212738   3.204   3.077   5.657
 4136SOL     OW12739   2.159   1.897   5.757
 4136SOL    HW112740   2.208   1.981   5.736
 4136SOL    HW212741   2.221   1.832   5.802
 4137SOL     OW12742   2.797   2.098   6.066
 4137SOL    HW112743   2.749   2.139   5.988
 4137SOL    HW212744   2.896   2.096   6.047
 4138SOL     OW12745   2.938   2.545   7.050
 4138SOL    HW112746   2.858   2.484   7.053
 4138SOL    HW212747   3.019   2.492   7.026
 4139SOL     OW12748   3.089   3.432   6.379
 4139SOL    HW112749   3.110   3.506   6.314
 4139SOL    HW212750   3.157   3.432   6.452
 4140SOL     OW12751   2.321   3.014   6.327
 4140SOL    HW112752   2.250   2.987   6.392
 4140SOL    HW212753   2.295   2.986   6.234
 4141SOL     OW12754   3.133   3.659   6.177
 4141SOL    HW112755   3.177   3.723   6.113
 4141SOL    HW212756   3.083   3.711   6.247
 4142SOL     OW12757   2.894   2.411   5.602
 4142SOL    HW112758   2.853   2.493   5.563
 4142SOL    HW212759   2.958   2.437   5.675
 4143SOL     OW12760   1.940   2.418   6.972
 4143SOL    HW112761   2.032   2.417   6.931
 4143SOL    HW212762   1.934   2.492   7.039
 4144SOL     OW12763   2.423   2.084   6.733
 4144SOL    HW112764   2.461   2.000   6.770
 4144SOL    HW212765   2.335   2.103   6.777
 4145SOL     OW12766   2.728   2.316   6.228
 4145SOL    HW112767   2.696   2.388   6.166
 4145SOL    HW212768   2.752   2.235   6.175
 4146SOL     OW12769   2.879   1.901   6.339
 4146SOL    HW112770   2.807   1.906   6.270
 4146SOL    HW212771   2.855   1.832   6.408
 4147SOL     OW12772   3.291   3.035   6.453
 4147SOL    HW112773   3.236   2.951   6.446
 4147SOL    HW212774   3.317   3.064   6.361
 4148SOL     OW12775   3.328   2.452   6.578
 4148SOL    HW112776   3.298   2.357   6.585
 4148SOL    HW212777   3.401   2.468   6.644
 4149SOL     OW12778   3.719   2.695   5.963
 4149SOL    HW112779   3.761   2.631   6.027
 4149SOL    HW212780   3.681   2.644   5.885
 4150SOL     OW12781   2.350   3.247   5.760
 4150SOL    HW112782   2.263   3.232   5.807
 4150SOL    HW212783   2.333   3.273   5.665
 4151SOL     OW12784   3.526   3.142   6.243
 4151SOL    HW112785   3.625   3.150   6.257
 4151SOL    HW212786   3.481   3.226   6.274
 4152SOL     OW12787   3.252   2.437   5.664
 4152SOL    HW112788   3.198   2.416   5.745
 4152SOL    HW212789   3.343   2.396   5.673
 4153SOL     OW12790   2.389   2.118   5.914
 4153SOL    HW112791   2.416   2.059   5.839
 4153SOL    HW212792   2.389   2.213   5.883
 4154SOL     OW12793   3.616   3.085   7.174
 4154SOL    HW112794   3.707   3.046   7.161
 4154SOL    HW212795   3.624   3.181   7.198
 4155SOL     OW12796   2.926   3.209   6.926
 4155SOL    HW112797   2.846   3.186   6.981
 4155SOL    HW212798   3.009   3.183   6.975
 4156SOL     OW12799   3.454   3.491   7.211
 4156SOL    HW112800   3.481   3.525   7.121
 4156SOL    HW212801   3.533   3.453   7.257
 4157SOL     OW12802   2.973   3.057   6.686
 4157SOL    HW112803   2.933   3.101   6.767
 4157SOL    HW212804   2.932   3.094   6.603
 4158SOL     OW12805   3.500   2.961   6.665
 4158SOL    HW112806   3.505   3.042   6.724
 4158SOL    HW212807   3.414   2.963   6.614
 4159SOL     OW12808   2.777   1.951   6.988
 4159SOL    HW112809   2.802   1.931   6.893
 4159SOL    HW212810   2.849   2.007   7.030
 4160SOL     OW12811   2.842   2.978   7.305
 4160SOL    HW112812   2.743   2.984   7.315
 4160SOL    HW212813   2.865   2.898   7.249
 4161SOL     OW12814   2.272   2.675   6.837
 4161SOL    HW112815   2.358   2.687   6.887
 4161SOL    HW212816   2.230   2.588   6.864
 4162SOL     OW12817   3.136   2.248   6.848
 4162SOL    HW112818   3.157   2.322   6.912
 4162SOL    HW212819   3.047   2.265   6.805
 4163SOL     OW12820   1.926   3.426   6.917
 4163SOL    HW112821   1.880   3.508   6.883
 4163SOL    HW212822   2.024   3.445   6.926
 4164SOL     OW12823   2.229   2.962   6.087
 4164SOL    HW112824   2.222   3.045   6.031
 4164SOL    HW212825   2.233   2.882   6.027
 4165SOL     OW12826   2.428   2.399   6.451
 4165SOL    HW112827   2.440   2.465   6.377
 4165SOL    HW212828   2.474   2.433   6.534
 4166SOL     OW12829   3.114   3.210   5.974
 4166SOL    HW112830   3.164   3.287   6.014
 4166SOL    HW212831   3.019   3.212   6.006
 4167SOL     OW12832   3.134   3.307   6.728
 4167SOL    HW112833   3.181   3.320   6.815
 4167SOL    HW212834   3.068   3.233   6.737
 4168SOL     OW12835   3.444   2.501   6.058
 4168SOL    HW112836   3.413   2.562   6.131
 4168SOL    HW212837   3.494   2.553   5.989
 4169SOL     OW12838   2.216   3.372   6.915
 4169SOL    HW112839   2.195   3.328   6.828
 4169SOL    HW212840   2.313   3.398   6.918
 4170SOL     OW12841   2.264   2.613   7.184
 4170SOL    HW112842   2.332   2.668   7.137
 4170SOL    HW212843   2.304   2.525   7.211
 4171SOL     OW12844   3.449   2.641   7.256
 4171SOL    HW112845   3.357   2.679   7.251
 4171SOL    HW212846   3.509   2.688   7.191
 4172SOL     OW12847   2.875   1.967   7.356
 4172SOL    HW112848   2.881   2.052   7.304
 4172SOL    HW212849   2.907   1.891   7.299
 4173SOL     OW12850   2.366   1.912   7.326
 4173SOL    HW112851   2.324   1.855   7.256
 4173SOL    HW212852   2.300   1.981   7.358
 4174SOL     OW12853   3.222   2.724   6.631
 4174SOL    HW112854   3.147   2.724   6.565
 4174SOL    HW212855   3.259   2.632   6.640
 4175SOL     OW12856   3.071   2.387   5.861
 4175SOL    HW112857   3.084   2.303   5.915
 4175SOL    HW212858   3.042   2.461   5.921
 4176SOL     OW12859   2.169   2.075   6.817
 4176SOL    HW112860   2.146   2.112   6.907
 4176SOL    HW212861   2.139   1.980   6.811
 4177SOL     OW12862   1.899   3.172   6.868
 4177SOL    HW112863   1.952   3.123   6.936
 4177SOL    HW212864   1.921   3.270   6.873
 4178SOL     OW12865   3.590   2.797   7.440
 4178SOL    HW112866   3.544   2.790   7.351
 4178SOL    HW212867   3.528   2.841   7.506
 4179SOL     OW12868   2.169   1.925   6.204
 4179SOL    HW112869   2.158   2.019   6.237
 4179SOL    HW212870   2.164   1.862   6.281
 4180SOL     OW12871   3.484   2.229   5.960
 4180SOL    HW112872   3.486   2.153   6.024
 4180SOL    HW212873   3.436   2.306   6.000
 4181SOL     OW12874   2.842   3.435   7.286
 4181SOL    HW112875   2.822   3.479   7.198
 4181SOL    HW212876   2.881   3.344   7.270
 4182SOL     OW12877   3.721   3.380   7.191
 4182SOL    HW112878   3.735   3.407   7.096
 4182SOL    HW212879   3.804   3.402   7.244
 4183SOL     OW12880   2.212   2.760   7.390
 4183SOL    HW112881   2.288   2.804   7.438
 4183SOL    HW212882   2.247   2.713   7.308
 4184SOL     OW12883   3.402   2.136   5.711
 4184SOL    HW112884   3.341   2.061   5.734
 4184SOL    HW212885   3.424   2.188   5.794
 4185SOL     OW12886   3.165   2.700   5.628
 4185SOL    HW112887   3.199   2.607   5.643
 4185SOL    HW212888   3.183   2.727   5.533
 4186SOL     OW12889   2.930   3.195   6.435
 4186SOL    HW112890   2.937   3.111   6.380
 4186SOL    HW212891   2.992   3.264   6.399
 4187SOL     OW12892   2.181   2.672   6.535
 4187SOL    HW112893   2.274   2.708   6.540
 4187SOL    HW212894   2.175   2.587   6.587
 4188SOL     OW12895   2.201   2.371   6.592
 4188SOL    HW112896   2.149   2.288   6.575
 4188SOL    HW212897   2.278   2.376   6.528
 4189SOL     OW12898   3.000   2.242   7.264
 4189SOL    HW112899   2.955   2.305   7.328
 4189SOL    HW212900   3.093   2.273   7.247
 4190SOL     OW12901   3.022   2.069   7.063
 4190SOL    HW112902   3.022   2.133   7.140
 4190SOL    HW212903   3.050   2.117   6.980
 4191SOL     OW12904   1.870   3.188   5.786
 4191SOL    HW112905   1.777   3.209   5.755
 4191SOL    HW212906   1.880   3.089   5.799
 4192SOL     OW12907   1.950   3.663   6.513
 4192SOL    HW112908   1.908   3.577   6.486
 4192SOL    HW212909   2.044   3.666   6.479
 4193SOL     OW12910   2.366   3.430   6.496
 4193SOL    HW112911   2.432   3.504   6.505
 4193SOL    HW212912   2.410   3.351   6.454
 4194SOL     OW12913   1.902   2.406   6.700
 4194SOL    HW112914   1.987   2.373   6.659
 4194SOL    HW212915   1.915   2.421   6.798
 4195SOL     OW12916   2.051   2.382   7.308
 4195SOL    HW112917   2.110   2.342   7.238
 4195SOL    HW212918   1.993   2.453   7.267
 4196SOL     OW12919   3.231   2.812   7.246
 4196SOL    HW112920   3.270   2.901   7.266
 4196SOL    HW212921   3.241   2.792   7.149
 4197SOL     OW12922   2.677   2.434   5.911
 4197SOL    HW112923   2.684   2.345   5.865
 4197SOL    HW212924   2.583   2.468   5.903
 4198SOL     OW12925   3.519   2.466   6.792
 4198SOL    HW112926   3.481   2.397   6.854
 4198SOL    HW212927   3.601   2.430   6.748
 4199SOL     OW12928   2.114   3.426   7.330
 4199SOL    HW112929   2.084   3.483   7.406
 4199SOL    HW212930   2.107   3.329   7.356
 4200SOL     OW12931   2.533   2.326   6.855
 4200SOL    HW112932   2.499   2.237   6.825
 4200SOL    HW212933   2.559   2.380   6.775
 4201SOL     OW12934   2.792   3.540   7.051
 4201SOL    HW112935   2.768   3.522   6.956
 4201SOL    HW212936   2.822   3.634   7.061
 4202SOL     OW12937   2.335   2.362   5.777
 4202SOL    HW112938   2.396   2.442   5.781
 4202SOL    HW212939   2.240   2.393   5.784
 4203SOL     OW12940   2.021   2.999   7.052
 4203SOL    HW112941   2.043   2.938   7.128
 4203SOL    HW212942   2.031   2.950   6.966
 4204SOL     OW12943   3.209   2.921   6.820
 4204SOL    HW112944   3.233   2.858   6.746
 4204SOL    HW212945   3.119   2.961   6.802
 4205SOL     OW12946   3.164   2.717   5.895
 4205SOL    HW112947   3.078   2.686   5.937
 4205SOL    HW212948   3.160   2.703   5.796
 4206SOL     OW12949   3.621   3.609   6.740
 4206SOL    HW112950   3.682   3.639   6.667
 4206SOL    HW212951   3.583   3.520   6.718
 4207SOL     OW12952   3.114   3.593   6.714
 4207SOL    HW112953   3.198   3.598   6.660
 4207SOL    HW212954   3.091   3.497   6.732
 4208SOL     OW12955   1.945   3.120   6.608
 4208SOL    HW112956   1.940   3.119   6.708
 4208SOL    HW212957   1.862   3.079   6.570
 4209SOL     OW12958   2.550   3.524   7.302
 4209SOL    HW112959   2.494   3.605   7.311
 4209SOL    HW212960   2.602   3.528   7.216
 4210SOL     OW12961   3.588   1.997   6.109
 4210SOL    HW112962   3.661   1.980   6.042
 4210SOL    HW212963   3.557   1.910   6.147
 4211SOL     OW12964   3.250   3.435   6.063
 4211SOL    HW112965   3.317   3.447   5.989
 4211SOL    HW212966   3.210   3.524   6.086
 4212SOL     OW12967   1.992   3.656   7.437
 4212SOL    HW112968   1.951   3.582   7.490
 4212SOL    HW212969   2.056   3.707   7.495
 4213SOL     OW12970   3.142   2.789   6.258
 4213SOL    HW112971   3.202   2.708   6.260
 4213SOL    HW212972   3.182   2.858   6.198
 4214SOL     OW12973   2.692   3.135   7.008
 4214SOL    HW112974   2.687   3.168   7.103
 4214SOL    HW212975   2.606   3.154   6.962
 4215SOL     OW12976   2.534   3.478   5.740
 4215SOL    HW112977   2.543   3.488   5.641
 4215SOL    HW212978   2.494   3.389   5.761
 4216SOL     OW12979   3.512   3.582   6.980
 4216SOL    HW112980   3.565   3.592   6.896
 4216SOL    HW212981   3.485   3.672   7.014
 4217SOL     OW12982   3.703   2.037   6.549
 4217SOL    HW112983   3.742   1.952   6.513
 4217SOL    HW212984   3.605   2.039   6.530
 4218SOL     OW12985   2.125   2.188   6.306
 4218SOL    HW112986   2.046   2.239   6.272
 4218SOL    HW212987   2.116   2.173   6.404
 4219SOL     OW12988   3.056   3.474   5.617
 4219SOL    HW112989   3.062   3.381   5.654
 4219SOL    HW212990   2.997   3.474   5.537
 4220SOL     OW12991   3.366   3.469   5.630
 4220SOL    HW112992   3.274   3.506   5.637
 4220SOL    HW212993   3.404   3.489   5.540
 4221SOL     OW12994   2.234   3.150   7.076
 4221SOL    HW112995   2.221   3.243   7.042
 4221SOL    HW212996   2.150   3.098   7.063
 4222SOL     OW12997   3.476   3.154   6.875
 4222SOL    HW112998   3.536   3.157   6.955
 4222SOL    HW212999   3.401   3.218   6.888
 4223SOL     OW13000   2.901   2.960   6.282
 4223SOL    HW113001   2.831   2.913   6.336
 4223SOL    HW213002   2.960   2.892   6.239
 4224SOL     OW13003   2.876   2.098   6.557
 4224SOL    HW113004   2.868   2.062   6.464
 4224SOL    HW213005   2.874   2.022   6.622
 4225SOL     OW13006   2.452   3.349   6.077
 4225SOL    HW113007   2.494   3.291   6.007
 4225SOL    HW213008   2.408   3.428   6.033
 4226SOL     OW13009   3.571   2.247   6.967
 4226SOL    HW113010   3.644   2.316   6.971
 4226SOL    HW213011   3.599   2.172   6.908
 4227SOL     OW13012   2.117   3.210   5.876
 4227SOL    HW113013   2.021   3.211   5.849
 4227SOL    HW213014   2.129   3.263   5.960
 4228SOL     OW13015   1.967   2.875   7.312
 4228SOL    HW113016   1.890   2.842   7.366
 4228SOL    HW213017   2.052   2.845   7.354
 4229SOL     OW13018   2.534   2.065   7.075
 4229SOL    HW113019   2.624   2.049   7.035
 4229SOL    HW213020   2.542   2.070   7.174
 4230SOL     OW13021   1.937   2.207   5.619
 4230SOL    HW113022   1.845   2.179   5.590
 4230SOL    HW213023   1.968   2.284   5.563
 4231SOL     OW13024   3.302   2.718   6.984
 4231SOL    HW113025   3.245   2.770   6.921
 4231SOL    HW213026   3.398   2.730   6.960
 4232SOL     OW13027   1.934   2.028   5.904
 4232SOL    HW113028   1.917   2.111   5.850
 4232SOL    HW213029   2.024   1.991   5.882
 4233SOL     OW13030   3.045   3.197   5.705
 4233SOL    HW113031   2.946   3.186   5.707
 4233SOL    HW213032   3.079   3.212   5.798
 4234SOL     OW13033   3.355   3.629   6.545
 4234SOL    HW113034   3.388   3.693   6.476
 4234SOL    HW213035   3.421   3.623   6.620
 4235SOL     OW13036   3.312   3.082   7.219
 4235SOL    HW113037   3.303   3.072   7.318
 4235SOL    HW213038   3.408   3.075   7.193
 4236SOL     OW13039   2.252   3.603   7.146
 4236SOL    HW113040   2.161   3.644   7.144
 4236SOL    HW213041   2.245   3.509   7.178
 4237SOL     OW13042   3.536   2.745   6.840
 4237SOL    HW113043   3.509   2.656   6.803
 4237SOL    HW213044   3.537   2.813   6.767
 4238SOL     OW13045   3.087   2.187   6.035
 4238SOL    HW113046   3.152   2.113   6.024
 4238SOL    HW213047   3.107   2.237   6.119
 4239SOL     OW13048   3.639   2.204   7.228
 4239SOL    HW113049   3.622   2.235   7.134
 4239SOL    HW213050   3.555   2.167   7.266
 4240SOL     OW13051   3.592   2.796   7.103
 4240SOL    HW113052   3.630   2.887   7.118
 4240SOL    HW213053   3.584   2.779   7.004
 4241SOL     OW13054   2.721   3.236   5.602
 4241SOL    HW113055   2.675   3.251   5.690
 4241SOL    HW213056   2.765   3.321   5.572
 4242SOL     OW13057   2.523   3.652   6.539
 4242SOL    HW113058   2.477   3.740   6.526
 4242SOL    HW213059   2.622   3.664   6.532
 4243SOL     OW13060   2.945   2.846   5.673
 4243SOL    HW113061   2.922   2.899   5.591
 4243SOL    HW213062   3.026   2.790   5.654
 4244SOL     OW13063   3.723   3.431   6.437
 4244SOL    HW113064   3.652   3.419   6.367
 4244SOL    HW213065   3.724   3.352   6.497
 4245SOL     OW13066   2.083   3.176   7.430
 4245SOL    HW113067   2.018   3.103   7.409
 4245SOL    HW213068   2.087   3.190   7.528
 4246SOL     OW13069   1.941   3.102   6.239
 4246SOL    HW113070   1.940   3.055   6.327
 4246SOL    HW213071   2.023   3.074   6.188
 4247SOL     OW13072   2.534   3.253   7.210
 4247SOL    HW113073   2.456   3.203   7.248
 4247SOL    HW213074   2.531   3.348   7.241
 4248SOL     OW13075   3.686   2.054   6.813
 4248SOL    HW113076   3.682   1.964   6.857
 4248SOL    HW213077   3.689   2.043   6.714
 4249SOL     OW13078   2.290   2.286   6.106
 4249SOL    HW113079   2.320   2.214   6.044
 4249SOL    HW213080   2.251   2.246   6.189
 4250SOL     OW13081   3.567   3.349   6.690
 4250SOL    HW113082   3.474   3.324   6.663
 4250SOL    HW213083   3.593   3.299   6.772
 4251SOL     OW13084   2.179   2.409   6.866
 4251SOL    HW113085   2.217   2.350   6.938
 4251SOL    HW213086   2.219   2.383   6.778
 4252SOL     OW13087   2.674   3.448   6.273
 4252SOL    HW113088   2.706   3.458   6.179
 4252SOL    HW213089   2.595   3.386   6.275
 4253SOL     OW13090   3.286   2.076   6.698
 4253SOL    HW113091   3.338   2.011   6.753
 4253SOL    HW213092   3.237   2.139   6.759
 4254SOL     OW13093   2.863   1.896   6.740
 4254SOL    HW113094   2.800   1.824   6.709
 4254SOL    HW213095   2.956   1.860   6.740
 4255SOL     OW13096   2.632   3.192   5.887
 4255SOL    HW113097   2.586   3.105   5.904
 4255SOL    HW213098   2.723   3.189   5.928
 4256SOL     OW13099   2.480   3.429   6.870
 4256SOL    HW113100   2.475   3.511   6.927
 4256SOL    HW213101   2.569   3.426   6.825
 4257SOL     OW13102   3.214   1.914   5.754
 4257SOL    HW113103   3.249   1.873   5.670
 4257SOL    HW213104   3.124   1.876   5.774
 4258SOL     OW13105   3.162   2.315   6.277
 4258SOL    HW113106   3.103   2.395   6.281
 4258SOL    HW213107   3.177   2.280   6.370
 4259SOL     OW13108   3.455   2.083   6.468
 4259SOL    HW113109   3.371   2.082   6.522
 4259SOL    HW213110   3.457   2.166   6.412
 4260SOL     OW13111   1.901   2.939   5.886
 4260SOL    HW113112   2.000   2.928   5.877
 4260SOL    HW213113   1.861   2.853   5.918
 4261SOL     OW13114   2.737   3.508   5.923
 4261SOL    HW113115   2.660   3.473   5.869
 4261SOL    HW213116   2.705   3.579   5.985
 4262SOL     OW13117   2.092   2.490   7.561
 4262SOL    HW113118   1.999   2.488   7.598
 4262SOL    HW213119   2.093   2.451   7.469
 4263SOL     OW13120   3.617   2.469   7.679
 4263SOL    HW113121   3.605   2.456   7.580
 4263SOL    HW213122   3.587   2.388   7.728
 4264SOL     OW13123   2.093   3.575   7.931
 4264SOL    HW113124   2.127   3.652   7.985
 4264SOL    HW213125   2.137   3.575   7.841
 4265SOL     OW13126   2.092   3.296   7.986
 4265SOL    HW113127   2.066   3.392   7.986
 4265SOL    HW213128   2.021   3.242   8.031
 4266SOL     OW13129   2.468   2.826   7.571
 4266SOL    HW113130   2.475   2.910   7.517
 4266SOL    HW213131   2.514   2.839   7.659
 4267SOL     OW13132   3.704   3.629   7.807
 4267SOL    HW113133   3.758   3.600   7.887
 4267SOL    HW213134   3.734   3.719   7.778
 4268SOL     OW13135   1.889   3.458   7.565
 4268SOL    HW113136   1.870   3.362   7.586
 4268SOL    HW213137   1.856   3.516   7.640
 4269SOL     OW13138   3.551   2.784   8.060
 4269SOL    HW113139   3.646   2.755   8.068
 4269SOL    HW213140   3.543   2.849   7.985
 4270SOL     OW13141   3.503   2.970   7.880
 4270SOL    HW113142   3.589   2.972   7.828
 4270SOL    HW213143   3.517   3.017   7.968
 4271SOL     OW13144   2.671   1.866   7.950
 4271SOL    HW113145   2.711   1.957   7.941
 4271SOL    HW213146   2.571   1.874   7.956
 4272SOL     OW13147   3.387   2.861   7.638
 4272SOL    HW113148   3.324   2.785   7.651
 4272SOL    HW213149   3.435   2.879   7.724
 4273SOL     OW13150   3.438   3.524   7.755
 4273SOL    HW113151   3.527   3.570   7.758
 4273SOL    HW213152   3.417   3.500   7.660
 4274SOL     OW13153   1.938   2.673   8.237
 4274SOL    HW113154   2.037   2.661   8.246
 4274SOL    HW213155   1.914   2.768   8.258
 4275SOL     OW13156   2.727   2.210   7.643
 4275SOL    HW113157   2.786   2.273   7.594
 4275SOL    HW213158   2.746   2.116   7.614
 4276SOL     OW13159   2.183   2.805   7.690
 4276SOL    HW113160   2.265   2.844   7.648
 4276SOL    HW213161   2.156   2.723   7.641
 4277SOL     OW13162   2.973   3.638   7.685
 4277SOL    HW113163   2.913   3.576   7.735
 4277SOL    HW213164   3.004   3.594   7.600
 4278SOL     OW13165   3.494   3.239   7.529
 4278SOL    HW113166   3.462   3.333   7.519
 4278SOL    HW213167   3.418   3.176   7.517
 4279SOL     OW13168   2.326   3.605   7.771
 4279SOL    HW113169   2.359   3.644   7.857
 4279SOL    HW213170   2.402   3.598   7.706
 4280SOL     OW13171   3.262   1.969   7.874
 4280SOL    HW113172   3.238   1.932   7.784
 4280SOL    HW213173   3.361   1.985   7.878
 4281SOL     OW13174   2.244   2.562   7.928
 4281SOL    HW113175   2.289   2.472   7.925
 4281SOL    HW213176   2.150   2.551   7.961
 4282SOL     OW13177   2.476   1.984   7.565
 4282SOL    HW113178   2.574   1.962   7.572
 4282SOL    HW213179   2.445   1.967   7.472
 4283SOL     OW13180   2.401   1.926   7.960
 4283SOL    HW113181   2.320   1.927   8.018
 4283SOL    HW213182   2.404   2.009   7.905
 4284SOL     OW13183   3.296   3.050   7.489
 4284SOL    HW113184   3.328   2.974   7.546
 4284SOL    HW213185   3.204   3.077   7.519
 4285SOL     OW13186   2.159   1.897   7.619
 4285SOL    HW113187   2.208   1.981   7.598
 4285SOL    HW213188   2.221   1.832   7.664
 4286SOL     OW13189   2.797   2.098   7.928
 4286SOL    HW113190   2.749   2.139   7.850
 4286SOL    HW213191   2.896   2.096   7.909
 4287SOL     OW13192   2.321   3.014   8.189
 4287SOL    HW113193   2.250   2.987   8.254
 4287SOL    HW213194   2.295   2.986   8.096
 4288SOL     OW13195   3.133   3.659   8.039
 4288SOL    HW113196   3.177   3.723   7.975
 4288SOL    HW213197   3.083   3.711   8.109
 4289SOL     OW13198   2.894   2.411   7.464
 4289SOL    HW113199   2.853   2.493   7.425
 4289SOL    HW213200   2.958   2.437   7.537
 4290SOL     OW13201   3.719   2.695   7.825
 4290SOL    HW113202   3.761   2.631   7.889
 4290SOL    HW213203   3.681   2.644   7.747
 4291SOL     OW13204   2.350   3.247   7.622
 4291SOL    HW113205   2.263   3.232   7.669
 4291SOL    HW213206   2.333   3.273   7.527
 4292SOL     OW13207   3.252   2.437   7.526
 4292SOL    HW113208   3.198   2.416   7.607
 4292SOL    HW213209   3.343   2.396   7.535
 4293SOL     OW13210   2.389   2.118   7.776
 4293SOL    HW113211   2.416   2.059   7.701
 4293SOL    HW213212   2.389   2.213   7.745
 4294SOL     OW13213   2.567   2.912   7.816
 4294SOL    HW113214   2.553   2.919   7.915
 4294SOL    HW213215   2.651   2.861   7.798
 4295SOL     OW13216   2.229   2.962   7.949
 4295SOL    HW113217   2.222   3.045   7.893
 4295SOL    HW213218   2.233   2.882   7.889
 4296SOL     OW13219   3.114   3.210   7.836
 4296SOL    HW113220   3.164   3.287   7.876
 4296SOL    HW213221   3.019   3.212   7.868
 4297SOL     OW13222   3.444   2.501   7.920
 4297SOL    HW113223   3.413   2.562   7.993
 4297SOL    HW213224   3.494   2.553   7.851
 4298SOL     OW13225   3.071   2.387   7.723
 4298SOL    HW113226   3.084   2.303   7.777
 4298SOL    HW213227   3.042   2.461   7.783
 4299SOL     OW13228   3.484   2.229   7.822
 4299SOL    HW113229   3.486   2.153   7.886
 4299SOL    HW213230   3.436   2.306   7.862
 4300SOL     OW13231   3.402   2.136   7.573
 4300SOL    HW113232   3.341   2.061   7.596
 4300SOL    HW213233   3.424   2.188   7.656
 4301SOL     OW13234   3.165   2.700   7.490
 4301SOL    HW113235   3.199   2.607   7.505
 4301SOL    HW213236   3.183   2.727   7.395
 4302SOL     OW13237   1.870   3.188   7.648
 4302SOL    HW113238   1.777   3.209   7.617
 4302SOL    HW213239   1.880   3.089   7.661
 4303SOL     OW13240   2.335   2.362   7.639
 4303SOL    HW113241   2.396   2.442   7.643
 4303SOL    HW213242   2.240   2.393   7.646
 4304SOL     OW13243   3.164   2.717   7.757
 4304SOL    HW113244   3.078   2.686   7.799
 4304SOL    HW213245   3.160   2.703   7.658
 4305SOL     OW13246   3.588   1.997   7.971
 4305SOL    HW113247   3.661   1.980   7.904
 4305SOL    HW213248   3.557   1.910   8.009
 4306SOL     OW13249   3.250   3.435   7.925
 4306SOL    HW113250   3.317   3.447   7.851
 4306SOL    HW213251   3.210   3.524   7.948
 4307SOL     OW13252   2.534   3.478   7.602
 4307SOL    HW113253   2.543   3.488   7.503
 4307SOL    HW213254   2.494   3.389   7.623
 4308SOL     OW13255   3.056   3.474   7.479
 4308SOL    HW113256   3.062   3.381   7.516
 4308SOL    HW213257   2.997   3.474   7.399
 4309SOL     OW13258   3.366   3.469   7.492
 4309SOL    HW113259   3.274   3.506   7.499
 4309SOL    HW213260   3.404   3.489   7.402
 4310SOL     OW13261   2.452   3.349   7.939
 4310SOL    HW113262   2.494   3.291   7.869
 4310SOL    HW213263   2.408   3.428   7.895
 4311SOL     OW13264   2.117   3.210   7.738
 4311SOL    HW113265   2.021   3.211   7.711
 4311SOL    HW213266   2.129   3.263   7.822
 4312SOL     OW13267   1.937   2.207   7.481
 4312SOL    HW113268   1.845   2.179   7.452
 4312SOL    HW213269   1.968   2.284   7.425
 4313SOL     OW13270   1.934   2.028   7.766
 4313SOL    HW113271   1.917   2.111   7.712
 4313SOL    HW213272   2.024   1.991   7.744
 4314SOL     OW13273   3.045   3.197   7.567
 4314SOL    HW113274   2.946   3.186   7.569
 4314SOL    HW213275   3.079   3.212   7.660
 4315SOL     OW13276   3.087   2.187   7.897
 4315SOL    HW113277   3.152   2.113   7.886
 4315SOL    HW213278   3.107   2.237   7.981
 4316SOL     OW13279   2.721   3.236   7.464
 4316SOL    HW113280   2.675   3.251   7.552
 4316SOL    HW213281   2.765   3.321   7.434
 4317SOL     OW13282   2.945   2.846   7.535
 4317SOL    HW113283   2.922   2.899   7.453
 4317SOL    HW213284   3.026   2.790   7.516
 4318SOL     OW13285   2.290   2.286   7.968
 4318SOL    HW113286   2.320   2.214   7.906
 4318SOL    HW213287   2.251   2.246   8.051
 4319SOL     OW13288   2.632   3.192   7.749
 4319SOL    HW113289   2.586   3.105   7.766
 4319SOL    HW213290   2.723   3.189   7.790
 4320SOL     OW13291   3.214   1.914   7.616
 4320SOL    HW113292   3.249   1.873   7.532
 4320SOL    HW213293   3.124   1.876   7.636
 4321SOL     OW13294   1.901   2.939   7.748
 4321SOL    HW113295   2.000   2.928   7.739
 4321SOL    HW213296   1.861   2.853   7.780
 4322SOL     OW13297   2.737   3.508   7.785
 4322SOL    HW113298   2.660   3.473   7.731
 4322SOL    HW213299   2.705   3.579   7.847
 4323SOL     OW13300   2.092   4.352   0.113
 4323SOL    HW113301   1.999   4.350   0.150
 4323SOL    HW213302   2.093   4.313   0.021
 4324SOL     OW13303   2.087   3.999   0.996
 4324SOL    HW113304   2.122   3.982   1.088
 4324SOL    HW213305   1.999   3.954   0.984
 4325SOL     OW13306   1.881   4.092   0.647
 4325SOL    HW113307   1.799   4.135   0.686
 4325SOL    HW213308   1.853   4.019   0.584
 4326SOL     OW13309   2.431   4.999   1.165
 4326SOL    HW113310   2.338   4.992   1.128
 4326SOL    HW213311   2.442   5.088   1.209
 4327SOL     OW13312   3.417   5.235   0.703
 4327SOL    HW113313   3.360   5.219   0.784
 4327SOL    HW213314   3.358   5.245   0.623
 4328SOL     OW13315   2.997   4.427   0.717
 4328SOL    HW113316   3.054   4.505   0.692
 4328SOL    HW213317   2.937   4.453   0.793
 4329SOL     OW13318   3.617   4.331   0.231
 4329SOL    HW113319   3.605   4.318   0.132
 4329SOL    HW213320   3.587   4.250   0.280
 4330SOL     OW13321   2.630   4.868   1.023
 4330SOL    HW113322   2.552   4.885   1.083
 4330SOL    HW213323   2.664   4.955   0.987
 4331SOL     OW13324   2.712   4.522   1.823
 4331SOL    HW113325   2.708   4.598   1.888
 4331SOL    HW213326   2.734   4.558   1.732
 4332SOL     OW13327   2.547   4.736   0.665
 4332SOL    HW113328   2.616   4.720   0.735
 4332SOL    HW213329   2.474   4.793   0.703
 4333SOL     OW13330   2.548   4.885   1.803
 4333SOL    HW113331   2.608   4.964   1.817
 4333SOL    HW213332   2.462   4.916   1.762
 4334SOL     OW13333   2.197   5.159   1.061
 4334SOL    HW113334   2.119   5.128   1.008
 4334SOL    HW213335   2.255   5.217   1.004
 4335SOL     OW13336   3.322   5.229   1.339
 4335SOL    HW113337   3.346   5.323   1.365
 4335SOL    HW213338   3.306   5.175   1.421
 4336SOL     OW13339   2.300   4.116   1.499
 4336SOL    HW113340   2.382   4.060   1.508
 4336SOL    HW213341   2.219   4.058   1.503
 4337SOL     OW13342   3.465   4.171   0.737
 4337SOL    HW113343   3.391   4.217   0.687
 4337SOL    HW213344   3.516   4.239   0.790
 4338SOL     OW13345   2.989   5.065   1.690
 4338SOL    HW113346   3.036   5.065   1.778
 4338SOL    HW213347   2.941   4.978   1.679
 4339SOL     OW13348   2.092   5.158   0.538
 4339SOL    HW113349   2.066   5.254   0.538
 4339SOL    HW213350   2.021   5.104   0.583
 4340SOL     OW13351   2.102   4.815   0.886
 4340SOL    HW113352   2.116   4.731   0.938
 4340SOL    HW213353   2.047   4.879   0.941
 4341SOL     OW13354   2.468   4.688   0.123
 4341SOL    HW113355   2.475   4.772   0.069
 4341SOL    HW213356   2.514   4.701   0.211
 4342SOL     OW13357   3.456   3.838   1.480
 4342SOL    HW113358   3.438   3.905   1.408
 4342SOL    HW213359   3.453   3.884   1.569
 4343SOL     OW13360   1.984   4.367   0.563
 4343SOL    HW113361   1.939   4.279   0.580
 4343SOL    HW213362   1.983   4.421   0.647
 4344SOL     OW13363   1.889   5.320   0.117
 4344SOL    HW113364   1.870   5.224   0.138
 4344SOL    HW213365   1.856   5.378   0.192
 4345SOL     OW13366   3.551   4.646   0.612
 4345SOL    HW113367   3.646   4.617   0.620
 4345SOL    HW213368   3.543   4.711   0.537
 4346SOL     OW13369   3.503   4.832   0.432
 4346SOL    HW113370   3.589   4.834   0.380
 4346SOL    HW213371   3.517   4.879   0.520
 4347SOL     OW13372   1.975   4.461   1.597
 4347SOL    HW113373   2.063   4.448   1.642
 4347SOL    HW213374   1.962   4.558   1.575
 4348SOL     OW13375   2.475   5.089   0.726
 4348SOL    HW113376   2.426   5.002   0.735
 4348SOL    HW213377   2.452   5.132   0.639
 4349SOL     OW13378   3.155   4.952   1.423
 4349SOL    HW113379   3.192   4.879   1.365
 4349SOL    HW213380   3.207   4.957   1.508
 4350SOL     OW13381   2.671   3.728   0.502
 4350SOL    HW113382   2.711   3.819   0.493
 4350SOL    HW213383   2.571   3.736   0.508
 4351SOL     OW13384   2.059   4.700   1.264
 4351SOL    HW113385   2.148   4.655   1.250
 4351SOL    HW213386   1.986   4.635   1.245
 4352SOL     OW13387   3.387   4.723   0.190
 4352SOL    HW113388   3.324   4.647   0.203
 4352SOL    HW213389   3.435   4.741   0.276
 4353SOL     OW13390   2.179   3.975   1.801
 4353SOL    HW113391   2.250   4.046   1.807
 4353SOL    HW213392   2.091   4.014   1.829
 4354SOL     OW13393   3.328   5.141   0.953
 4354SOL    HW113394   3.269   5.147   1.033
 4354SOL    HW213395   3.313   5.053   0.907
 4355SOL     OW13396   2.460   4.453   0.270
 4355SOL    HW113397   2.484   4.522   0.202
 4355SOL    HW213398   2.382   4.486   0.324
 4356SOL     OW13399   3.143   4.069   0.944
 4356SOL    HW113400   3.057   4.019   0.931
 4356SOL    HW213401   3.205   4.015   1.000
 4357SOL     OW13402   2.669   4.329   1.465
 4357SOL    HW113403   2.622   4.326   1.554
 4357SOL    HW213404   2.618   4.274   1.399
 4358SOL     OW13405   3.256   4.193   1.674
 4358SOL    HW113406   3.236   4.236   1.762
 4358SOL    HW213407   3.334   4.131   1.683
 4359SOL     OW13408   2.835   4.614   1.572
 4359SOL    HW113409   2.881   4.530   1.543
 4359SOL    HW213410   2.779   4.648   1.497
 4360SOL     OW13411   2.853   4.134   1.242
 4360SOL    HW113412   2.776   4.168   1.296
 4360SOL    HW213413   2.819   4.083   1.163
 4361SOL     OW13414   2.903   4.425   0.429
 4361SOL    HW113415   2.929   4.421   0.525
 4361SOL    HW213416   2.818   4.374   0.415
 4362SOL     OW13417   1.938   4.535   0.789
 4362SOL    HW113418   2.037   4.523   0.798
 4362SOL    HW213419   1.914   4.630   0.810
 4363SOL     OW13420   2.727   4.072   0.195
 4363SOL    HW113421   2.786   4.135   0.146
 4363SOL    HW213422   2.746   3.978   0.166
 4364SOL     OW13423   3.581   4.309   1.831
 4364SOL    HW113424   3.555   4.398   1.795
 4364SOL    HW213425   3.579   4.241   1.758
 4365SOL     OW13426   3.224   4.868   0.545
 4365SOL    HW113427   3.307   4.839   0.497
 4365SOL    HW213428   3.175   4.935   0.489
 4366SOL     OW13429   2.412   3.920   0.885
 4366SOL    HW113430   2.407   3.915   0.985
 4366SOL    HW213431   2.414   4.016   0.856
 4367SOL     OW13432   2.870   5.180   0.477
 4367SOL    HW113433   2.824   5.252   0.425
 4367SOL    HW213434   2.866   5.200   0.575
 4368SOL     OW13435   3.657   4.790   0.873
 4368SOL    HW113436   3.595   4.775   0.797
 4368SOL    HW213437   3.605   4.801   0.958
 4369SOL     OW13438   3.089   5.274   1.506
 4369SOL    HW113439   3.095   5.197   1.570
 4369SOL    HW213440   3.037   5.248   1.426
 4370SOL     OW13441   2.183   4.667   0.242
 4370SOL    HW113442   2.265   4.706   0.200
 4370SOL    HW213443   2.156   4.585   0.193
 4371SOL     OW13444   3.320   4.459   0.728
 4371SOL    HW113445   3.315   4.394   0.803
 4371SOL    HW213446   3.400   4.518   0.741
 4372SOL     OW13447   2.323   4.990   1.727
 4372SOL    HW113448   2.273   4.991   1.641
 4372SOL    HW213449   2.260   4.972   1.803
 4373SOL     OW13450   2.973   5.500   0.237
 4373SOL    HW113451   2.913   5.438   0.287
 4373SOL    HW213452   3.004   5.456   0.152
 4374SOL     OW13453   2.064   4.009   1.498
 4374SOL    HW113454   1.984   4.069   1.485
 4374SOL    HW213455   2.054   3.960   1.584
 4375SOL     OW13456   3.494   5.101   0.081
 4375SOL    HW113457   3.462   5.195   0.071
 4375SOL    HW213458   3.418   5.038   0.069
 4376SOL     OW13459   3.262   3.831   0.426
 4376SOL    HW113460   3.238   3.794   0.336
 4376SOL    HW213461   3.361   3.847   0.430
 4377SOL     OW13462   2.244   4.424   0.480
 4377SOL    HW113463   2.289   4.334   0.477
 4377SOL    HW213464   2.150   4.413   0.513
 4378SOL     OW13465   3.409   3.946   1.729
 4378SOL    HW113466   3.404   3.983   1.821
 4378SOL    HW213467   3.337   3.877   1.717
 4379SOL     OW13468   2.476   3.846   0.117
 4379SOL    HW113469   2.574   3.824   0.124
 4379SOL    HW213470   2.445   3.829   0.024
 4380SOL     OW13471   2.643   3.988   1.749
 4380SOL    HW113472   2.710   3.927   1.792
 4380SOL    HW213473   2.570   4.007   1.814
 4381SOL     OW13474   3.213   4.314   1.433
 4381SOL    HW113475   3.241   4.271   1.518
 4381SOL    HW213476   3.238   4.410   1.434
 4382SOL     OW13477   2.665   5.126   0.924
 4382SOL    HW113478   2.755   5.140   0.882
 4382SOL    HW213479   2.594   5.128   0.853
 4383SOL     OW13480   2.784   4.227   0.899
 4383SOL    HW113481   2.759   4.218   0.803
 4383SOL    HW213482   2.832   4.145   0.930
 4384SOL     OW13483   2.401   3.788   0.512
 4384SOL    HW113484   2.320   3.789   0.570
 4384SOL    HW213485   2.404   3.871   0.457
 4385SOL     OW13486   3.296   4.912   0.041
 4385SOL    HW113487   3.328   4.836   0.098
 4385SOL    HW213488   3.204   4.939   0.071
 4386SOL     OW13489   2.159   3.759   0.171
 4386SOL    HW113490   2.208   3.843   0.150
 4386SOL    HW213491   2.221   3.694   0.216
 4387SOL     OW13492   2.797   3.960   0.480
 4387SOL    HW113493   2.749   4.001   0.402
 4387SOL    HW213494   2.896   3.958   0.461
 4388SOL     OW13495   2.938   4.407   1.464
 4388SOL    HW113496   2.858   4.346   1.467
 4388SOL    HW213497   3.019   4.354   1.440
 4389SOL     OW13498   3.089   5.294   0.793
 4389SOL    HW113499   3.110   5.368   0.728
 4389SOL    HW213500   3.157   5.294   0.866
 4390SOL     OW13501   2.321   4.876   0.741
 4390SOL    HW113502   2.250   4.849   0.806
 4390SOL    HW213503   2.295   4.848   0.648
 4391SOL     OW13504   2.894   4.273   0.016
 4391SOL    HW113505   2.853   4.355  -0.023
 4391SOL    HW213506   2.958   4.299   0.089
 4392SOL     OW13507   1.940   4.280   1.386
 4392SOL    HW113508   2.032   4.279   1.345
 4392SOL    HW213509   1.934   4.354   1.453
 4393SOL     OW13510   2.423   3.946   1.147
 4393SOL    HW113511   2.461   3.862   1.184
 4393SOL    HW213512   2.335   3.965   1.191
 4394SOL     OW13513   2.728   4.178   0.642
 4394SOL    HW113514   2.696   4.250   0.580
 4394SOL    HW213515   2.752   4.097   0.589
 4395SOL     OW13516   2.879   3.763   0.753
 4395SOL    HW113517   2.807   3.768   0.684
 4395SOL    HW213518   2.855   3.694   0.822
 4396SOL     OW13519   3.291   4.897   0.867
 4396SOL    HW113520   3.236   4.813   0.860
 4396SOL    HW213521   3.317   4.926   0.775
 4397SOL     OW13522   3.328   4.314   0.992
 4397SOL    HW113523   3.298   4.219   0.999
 4397SOL    HW213524   3.401   4.330   1.058
 4398SOL     OW13525   3.719   4.557   0.377
 4398SOL    HW113526   3.761   4.493   0.441
 4398SOL    HW213527   3.681   4.506   0.299
 4399SOL     OW13528   2.350   5.109   0.174
 4399SOL    HW113529   2.263   5.094   0.221
 4399SOL    HW213530   2.333   5.135   0.079
 4400SOL     OW13531   3.526   5.004   0.657
 4400SOL    HW113532   3.625   5.012   0.671
 4400SOL    HW213533   3.481   5.088   0.688
 4401SOL     OW13534   3.252   4.299   0.078
 4401SOL    HW113535   3.198   4.278   0.159
 4401SOL    HW213536   3.343   4.258   0.087
 4402SOL     OW13537   2.389   3.980   0.328
 4402SOL    HW113538   2.416   3.921   0.253
 4402SOL    HW213539   2.389   4.075   0.297
 4403SOL     OW13540   3.616   4.947   1.588
 4403SOL    HW113541   3.707   4.908   1.575
 4403SOL    HW213542   3.624   5.043   1.612
 4404SOL     OW13543   2.926   5.071   1.340
 4404SOL    HW113544   2.846   5.048   1.395
 4404SOL    HW213545   3.009   5.045   1.389
 4405SOL     OW13546   2.973   4.919   1.100
 4405SOL    HW113547   2.933   4.963   1.181
 4405SOL    HW213548   2.932   4.956   1.017
 4406SOL     OW13549   3.500   4.823   1.079
 4406SOL    HW113550   3.505   4.904   1.138
 4406SOL    HW213551   3.414   4.825   1.028
 4407SOL     OW13552   2.777   3.813   1.402
 4407SOL    HW113553   2.802   3.793   1.307
 4407SOL    HW213554   2.849   3.869   1.444
 4408SOL     OW13555   2.842   4.840   1.719
 4408SOL    HW113556   2.743   4.846   1.729
 4408SOL    HW213557   2.865   4.760   1.663
 4409SOL     OW13558   2.567   4.774   0.368
 4409SOL    HW113559   2.553   4.781   0.467
 4409SOL    HW213560   2.651   4.723   0.350
 4410SOL     OW13561   2.272   4.537   1.251
 4410SOL    HW113562   2.358   4.549   1.301
 4410SOL    HW213563   2.230   4.450   1.278
 4411SOL     OW13564   3.136   4.110   1.262
 4411SOL    HW113565   3.157   4.184   1.326
 4411SOL    HW213566   3.047   4.127   1.219
 4412SOL     OW13567   2.229   4.824   0.501
 4412SOL    HW113568   2.222   4.907   0.445
 4412SOL    HW213569   2.233   4.744   0.441
 4413SOL     OW13570   2.428   4.261   0.865
 4413SOL    HW113571   2.440   4.327   0.791
 4413SOL    HW213572   2.474   4.295   0.948
 4414SOL     OW13573   3.114   5.072   0.388
 4414SOL    HW113574   3.164   5.149   0.428
 4414SOL    HW213575   3.019   5.074   0.420
 4415SOL     OW13576   3.134   5.169   1.142
 4415SOL    HW113577   3.181   5.182   1.229
 4415SOL    HW213578   3.068   5.095   1.151
 4416SOL     OW13579   3.444   4.363   0.472
 4416SOL    HW113580   3.413   4.424   0.545
 4416SOL    HW213581   3.494   4.415   0.403
 4417SOL     OW13582   2.216   5.234   1.329
 4417SOL    HW113583   2.195   5.190   1.242
 4417SOL    HW213584   2.313   5.260   1.332
 4418SOL     OW13585   2.264   4.475   1.598
 4418SOL    HW113586   2.332   4.530   1.551
 4418SOL    HW213587   2.304   4.387   1.625
 4419SOL     OW13588   3.449   4.503   1.670
 4419SOL    HW113589   3.357   4.541   1.665
 4419SOL    HW213590   3.509   4.550   1.605
 4420SOL     OW13591   2.875   3.829   1.770
 4420SOL    HW113592   2.881   3.914   1.718
 4420SOL    HW213593   2.907   3.753   1.713
 4421SOL     OW13594   2.366   3.774   1.740
 4421SOL    HW113595   2.324   3.717   1.670
 4421SOL    HW213596   2.300   3.843   1.772
 4422SOL     OW13597   2.435   4.594   1.029
 4422SOL    HW113598   2.479   4.683   1.020
 4422SOL    HW213599   2.372   4.594   1.106
 4423SOL     OW13600   3.222   4.586   1.045
 4423SOL    HW113601   3.147   4.586   0.979
 4423SOL    HW213602   3.259   4.494   1.054
 4424SOL     OW13603   3.071   4.249   0.275
 4424SOL    HW113604   3.084   4.165   0.329
 4424SOL    HW213605   3.042   4.323   0.335
 4425SOL     OW13606   2.169   3.937   1.231
 4425SOL    HW113607   2.146   3.974   1.321
 4425SOL    HW213608   2.139   3.842   1.225
 4426SOL     OW13609   1.899   5.034   1.282
 4426SOL    HW113610   1.952   4.985   1.350
 4426SOL    HW213611   1.921   5.132   1.287
 4427SOL     OW13612   2.594   4.358   1.064
 4427SOL    HW113613   2.653   4.332   0.988
 4427SOL    HW213614   2.566   4.454   1.053
 4428SOL     OW13615   3.590   4.659   1.854
 4428SOL    HW113616   3.544   4.652   1.765
 4428SOL    HW213617   3.528   4.703   1.920
 4429SOL     OW13618   2.169   3.787   0.618
 4429SOL    HW113619   2.158   3.881   0.651
 4429SOL    HW213620   2.164   3.724   0.695
 4430SOL     OW13621   3.484   4.091   0.374
 4430SOL    HW113622   3.486   4.015   0.438
 4430SOL    HW213623   3.436   4.168   0.414
 4431SOL     OW13624   2.885   4.490   0.966
 4431SOL    HW113625   2.900   4.511   1.062
 4431SOL    HW213626   2.855   4.395   0.957
 4432SOL     OW13627   3.721   5.242   1.605
 4432SOL    HW113628   3.735   5.269   1.510
 4432SOL    HW213629   3.804   5.264   1.658
 4433SOL     OW13630   2.212   4.622   1.804
 4433SOL    HW113631   2.288   4.666   1.852
 4433SOL    HW213632   2.247   4.575   1.722
 4434SOL     OW13633   3.402   3.998   0.125
 4434SOL    HW113634   3.341   3.923   0.148
 4434SOL    HW213635   3.424   4.050   0.208
 4435SOL     OW13636   3.165   4.562   0.042
 4435SOL    HW113637   3.199   4.469   0.057
 4435SOL    HW213638   3.183   4.589  -0.053
 4436SOL     OW13639   2.930   5.057   0.849
 4436SOL    HW113640   2.937   4.973   0.794
 4436SOL    HW213641   2.992   5.126   0.813
 4437SOL     OW13642   2.181   4.534   0.949
 4437SOL    HW113643   2.274   4.570   0.954
 4437SOL    HW213644   2.175   4.449   1.001
 4438SOL     OW13645   2.201   4.233   1.006
 4438SOL    HW113646   2.149   4.150   0.989
 4438SOL    HW213647   2.278   4.238   0.942
 4439SOL     OW13648   3.000   4.104   1.678
 4439SOL    HW113649   2.955   4.167   1.742
 4439SOL    HW213650   3.093   4.135   1.661
 4440SOL     OW13651   3.022   3.931   1.477
 4440SOL    HW113652   3.022   3.995   1.554
 4440SOL    HW213653   3.050   3.979   1.394
 4441SOL     OW13654   1.870   5.050   0.200
 4441SOL    HW113655   1.777   5.071   0.169
 4441SOL    HW213656   1.880   4.951   0.213
 4442SOL     OW13657   2.864   4.520   1.238
 4442SOL    HW113658   2.905   4.488   1.324
 4442SOL    HW213659   2.768   4.493   1.235
 4443SOL     OW13660   1.902   4.268   1.114
 4443SOL    HW113661   1.987   4.235   1.073
 4443SOL    HW213662   1.915   4.283   1.212
 4444SOL     OW13663   2.051   4.244   1.722
 4444SOL    HW113664   2.110   4.204   1.652
 4444SOL    HW213665   1.993   4.315   1.681
 4445SOL     OW13666   3.231   4.674   1.660
 4445SOL    HW113667   3.270   4.763   1.680
 4445SOL    HW213668   3.241   4.654   1.563
 4446SOL     OW13669   2.677   4.296   0.325
 4446SOL    HW113670   2.684   4.207   0.279
 4446SOL    HW213671   2.583   4.330   0.317
 4447SOL     OW13672   3.519   4.328   1.206
 4447SOL    HW113673   3.481   4.259   1.268
 4447SOL    HW213674   3.601   4.292   1.162
 4448SOL     OW13675   2.114   5.288   1.744
 4448SOL    HW113676   2.084   5.345   1.820
 4448SOL    HW213677   2.107   5.191   1.770
 4449SOL     OW13678   2.533   4.188   1.269
 4449SOL    HW113679   2.499   4.099   1.239
 4449SOL    HW213680   2.559   4.242   1.189
 4450SOL     OW13681   2.335   4.224   0.191
 4450SOL    HW113682   2.396   4.304   0.195
 4450SOL    HW213683   2.240   4.255   0.198
 4451SOL     OW13684   2.021   4.861   1.466
 4451SOL    HW113685   2.043   4.800   1.542
 4451SOL    HW213686   2.031   4.812   1.380
 4452SOL     OW13687   3.209   4.783   1.234
 4452SOL    HW113688   3.233   4.720   1.160
 4452SOL    HW213689   3.119   4.823   1.216
 4453SOL     OW13690   3.164   4.579   0.309
 4453SOL    HW113691   3.078   4.548   0.351
 4453SOL    HW213692   3.160   4.565   0.210
 4454SOL     OW13693   1.945   4.982   1.022
 4454SOL    HW113694   1.940   4.981   1.122
 4454SOL    HW213695   1.862   4.941   0.984
 4455SOL     OW13696   2.550   5.386   1.716
 4455SOL    HW113697   2.494   5.467   1.725
 4455SOL    HW213698   2.602   5.390   1.630
 4456SOL     OW13699   2.765   3.810   0.133
 4456SOL    HW113700   2.816   3.811   0.047
 4456SOL    HW213701   2.821   3.768   0.204
 4457SOL     OW13702   3.588   3.859   0.523
 4457SOL    HW113703   3.661   3.842   0.456
 4457SOL    HW213704   3.557   3.772   0.561
 4458SOL     OW13705   3.142   4.651   0.672
 4458SOL    HW113706   3.202   4.570   0.674
 4458SOL    HW213707   3.182   4.720   0.612
 4459SOL     OW13708   2.692   4.997   1.422
 4459SOL    HW113709   2.687   5.030   1.517
 4459SOL    HW213710   2.606   5.016   1.376
 4460SOL     OW13711   3.703   3.899   0.963
 4460SOL    HW113712   3.742   3.814   0.927
 4460SOL    HW213713   3.605   3.901   0.944
 4461SOL     OW13714   2.125   4.050   0.720
 4461SOL    HW113715   2.046   4.101   0.686
 4461SOL    HW213716   2.116   4.035   0.818
 4462SOL     OW13717   3.056   5.336   0.031
 4462SOL    HW113718   3.062   5.243   0.068
 4462SOL    HW213719   2.997   5.336  -0.049
 4463SOL     OW13720   2.684   4.726   1.372
 4463SOL    HW113721   2.724   4.725   1.280
 4463SOL    HW213722   2.694   4.818   1.412
 4464SOL     OW13723   2.778   4.634   0.291
 4464SOL    HW113724   2.841   4.672   0.223
 4464SOL    HW213725   2.818   4.551   0.330
 4465SOL     OW13726   2.234   5.012   1.490
 4465SOL    HW113727   2.221   5.105   1.456
 4465SOL    HW213728   2.150   4.960   1.477
 4466SOL     OW13729   3.476   5.016   1.289
 4466SOL    HW113730   3.536   5.019   1.369
 4466SOL    HW213731   3.401   5.080   1.302
 4467SOL     OW13732   2.901   4.822   0.696
 4467SOL    HW113733   2.831   4.775   0.750
 4467SOL    HW213734   2.960   4.754   0.653
 4468SOL     OW13735   2.876   3.960   0.971
 4468SOL    HW113736   2.868   3.924   0.878
 4468SOL    HW213737   2.874   3.884   1.036
 4469SOL     OW13738   3.571   4.109   1.381
 4469SOL    HW113739   3.644   4.178   1.385
 4469SOL    HW213740   3.599   4.034   1.322
 4470SOL     OW13741   2.117   5.072   0.290
 4470SOL    HW113742   2.021   5.073   0.263
 4470SOL    HW213743   2.129   5.125   0.374
 4471SOL     OW13744   1.967   4.737   1.726
 4471SOL    HW113745   1.890   4.704   1.780
 4471SOL    HW213746   2.052   4.707   1.768
 4472SOL     OW13747   2.534   3.927   1.489
 4472SOL    HW113748   2.624   3.911   1.449
 4472SOL    HW213749   2.542   3.932   1.588
 4473SOL     OW13750   1.937   4.069   0.033
 4473SOL    HW113751   1.845   4.041   0.004
 4473SOL    HW213752   1.968   4.146  -0.023
 4474SOL     OW13753   3.302   4.580   1.398
 4474SOL    HW113754   3.245   4.632   1.335
 4474SOL    HW213755   3.398   4.592   1.374
 4475SOL     OW13756   1.934   3.890   0.318
 4475SOL    HW113757   1.917   3.973   0.264
 4475SOL    HW213758   2.024   3.853   0.296
 4476SOL     OW13759   3.045   5.059   0.119
 4476SOL    HW113760   2.946   5.048   0.121
 4476SOL    HW213761   3.079   5.074   0.212
 4477SOL     OW13762   2.475   4.566   1.431
 4477SOL    HW113763   2.531   4.647   1.414
 4477SOL    HW213764   2.534   4.486   1.434
 4478SOL     OW13765   2.578   4.289   1.708
 4478SOL    HW113766   2.597   4.354   1.782
 4478SOL    HW213767   2.638   4.209   1.717
 4479SOL     OW13768   3.312   4.944   1.633
 4479SOL    HW113769   3.303   4.934   1.732
 4479SOL    HW213770   3.408   4.937   1.607
 4480SOL     OW13771   3.536   4.607   1.254
 4480SOL    HW113772   3.509   4.518   1.217
 4480SOL    HW213773   3.537   4.675   1.181
 4481SOL     OW13774   3.087   4.049   0.449
 4481SOL    HW113775   3.152   3.975   0.438
 4481SOL    HW213776   3.107   4.099   0.533
 4482SOL     OW13777   2.456   4.469   0.652
 4482SOL    HW113778   2.506   4.554   0.633
 4482SOL    HW213779   2.368   4.471   0.604
 4483SOL     OW13780   3.639   4.066   1.642
 4483SOL    HW113781   3.622   4.097   1.548
 4483SOL    HW213782   3.555   4.029   1.680
 4484SOL     OW13783   3.592   4.658   1.517
 4484SOL    HW113784   3.630   4.749   1.532
 4484SOL    HW213785   3.584   4.641   1.418
 4485SOL     OW13786   2.721   5.098   0.016
 4485SOL    HW113787   2.675   5.113   0.104
 4485SOL    HW213788   2.765   5.183  -0.014
 4486SOL     OW13789   2.721   4.680   0.861
 4486SOL    HW113790   2.775   4.611   0.909
 4486SOL    HW213791   2.689   4.749   0.927
 4487SOL     OW13792   2.945   4.708   0.087
 4487SOL    HW113793   2.922   4.761   0.005
 4487SOL    HW213794   3.026   4.652   0.068
 4488SOL     OW13795   2.083   5.038   1.844
 4488SOL    HW113796   2.018   4.965   1.823
 4488SOL    HW213797   2.087   5.052   1.942
 4489SOL     OW13798   1.941   4.964   0.653
 4489SOL    HW113799   1.940   4.917   0.741
 4489SOL    HW213800   2.023   4.936   0.602
 4490SOL     OW13801   2.534   5.115   1.624
 4490SOL    HW113802   2.456   5.065   1.662
 4490SOL    HW213803   2.531   5.210   1.655
 4491SOL     OW13804   3.686   3.916   1.227
 4491SOL    HW113805   3.682   3.826   1.271
 4491SOL    HW213806   3.689   3.905   1.128
 4492SOL     OW13807   2.290   4.148   0.520
 4492SOL    HW113808   2.320   4.076   0.458
 4492SOL    HW213809   2.251   4.108   0.603
 4493SOL     OW13810   3.567   5.211   1.104
 4493SOL    HW113811   3.474   5.186   1.077
 4493SOL    HW213812   3.593   5.161   1.186
 4494SOL     OW13813   2.179   4.271   1.280
 4494SOL    HW113814   2.217   4.212   1.352
 4494SOL    HW213815   2.219   4.245   1.192
 4495SOL     OW13816   3.286   3.938   1.112
 4495SOL    HW113817   3.338   3.873   1.167
 4495SOL    HW213818   3.237   4.001   1.173
 4496SOL     OW13819   2.863   3.758   1.154
 4496SOL    HW113820   2.800   3.686   1.123
 4496SOL    HW213821   2.956   3.722   1.154
 4497SOL     OW13822   2.632   5.054   0.301
 4497SOL    HW113823   2.586   4.967   0.318
 4497SOL    HW213824   2.723   5.051   0.342
 4498SOL     OW13825   2.480   5.291   1.284
 4498SOL    HW113826   2.475   5.373   1.341
 4498SOL    HW213827   2.569   5.288   1.239
 4499SOL     OW13828   3.214   3.776   0.168
 4499SOL    HW113829   3.249   3.735   0.084
 4499SOL    HW213830   3.124   3.738   0.188
 4500SOL     OW13831   3.162   4.177   0.691
 4500SOL    HW113832   3.103   4.257   0.695
 4500SOL    HW213833   3.177   4.142   0.784
 4501SOL     OW13834   3.455   3.945   0.882
 4501SOL    HW113835   3.371   3.944   0.936
 4501SOL    HW213836   3.457   4.028   0.826
 4502SOL     OW13837   1.901   4.801   0.300
 4502SOL    HW113838   2.000   4.790   0.291
 4502SOL    HW213839   1.861   4.715   0.332
 4503SOL     OW13840   2.092   4.352   1.975
 4503SOL    HW113841   1.999   4.350   2.012
 4503SOL    HW213842   2.093   4.313   1.883
 4504SOL     OW13843   2.087   3.999   2.858
 4504SOL    HW113844   2.122   3.982   2.950
 4504SOL    HW213845   1.999   3.954   2.846
 4505SOL     OW13846   1.881   4.092   2.509
 4505SOL    HW113847   1.799   4.135   2.548
 4505SOL    HW213848   1.853   4.019   2.446
 4506SOL     OW13849   2.431   4.999   3.027
 4506SOL    HW113850   2.338   4.992   2.990
 4506SOL    HW213851   2.442   5.088   3.071
 4507SOL     OW13852   3.417   5.235   2.565
 4507SOL    HW113853   3.360   5.219   2.646
 4507SOL    HW213854   3.358   5.245   2.485
 4508SOL     OW13855   2.997   4.427   2.579
 4508SOL    HW113856   3.054   4.505   2.554
 4508SOL    HW213857   2.937   4.453   2.655
 4509SOL     OW13858   3.617   4.331   2.093
 4509SOL    HW113859   3.605   4.318   1.994
 4509SOL    HW213860   3.587   4.250   2.142
 4510SOL     OW13861   2.630   4.868   2.885
 4510SOL    HW113862   2.552   4.885   2.945
 4510SOL    HW213863   2.664   4.955   2.849
 4511SOL     OW13864   2.712   4.522   3.685
 4511SOL    HW113865   2.708   4.598   3.750
 4511SOL    HW213866   2.734   4.558   3.594
 4512SOL     OW13867   2.547   4.736   2.527
 4512SOL    HW113868   2.616   4.720   2.597
 4512SOL    HW213869   2.474   4.793   2.565
 4513SOL     OW13870   2.548   4.885   3.665
 4513SOL    HW113871   2.608   4.964   3.679
 4513SOL    HW213872   2.462   4.916   3.624
 4514SOL     OW13873   2.197   5.159   2.923
 4514SOL    HW113874   2.119   5.128   2.870
 4514SOL    HW213875   2.255   5.217   2.866
 4515SOL     OW13876   3.322   5.229   3.201
 4515SOL    HW113877   3.346   5.323   3.227
 4515SOL    HW213878   3.306   5.175   3.283
 4516SOL     OW13879   2.300   4.116   3.361
 4516SOL    HW113880   2.382   4.060   3.370
 4516SOL    HW213881   2.219   4.058   3.365
 4517SOL     OW13882   3.465   4.171   2.599
 4517SOL    HW113883   3.391   4.217   2.549
 4517SOL    HW213884   3.516   4.239   2.652
 4518SOL     OW13885   2.989   5.065   3.552
 4518SOL    HW113886   3.036   5.065   3.640
 4518SOL    HW213887   2.941   4.978   3.541
 4519SOL     OW13888   2.092   5.158   2.400
 4519SOL    HW113889   2.066   5.254   2.400
 4519SOL    HW213890   2.021   5.104   2.445
 4520SOL     OW13891   2.102   4.815   2.748
 4520SOL    HW113892   2.116   4.731   2.800
 4520SOL    HW213893   2.047   4.879   2.803
 4521SOL     OW13894   2.468   4.688   1.985
 4521SOL    HW113895   2.475   4.772   1.931
 4521SOL    HW213896   2.514   4.701   2.073
 4522SOL     OW13897   3.456   3.838   3.342
 4522SOL    HW113898   3.438   3.905   3.270
 4522SOL    HW213899   3.453   3.884   3.431
 4523SOL     OW13900   1.984   4.367   2.425
 4523SOL    HW113901   1.939   4.279   2.442
 4523SOL    HW213902   1.983   4.421   2.509
 4524SOL     OW13903   1.889   5.320   1.979
 4524SOL    HW113904   1.870   5.224   2.000
 4524SOL    HW213905   1.856   5.378   2.054
 4525SOL     OW13906   3.551   4.646   2.474
 4525SOL    HW113907   3.646   4.617   2.482
 4525SOL    HW213908   3.543   4.711   2.399
 4526SOL     OW13909   3.503   4.832   2.294
 4526SOL    HW113910   3.589   4.834   2.242
 4526SOL    HW213911   3.517   4.879   2.382
 4527SOL     OW13912   1.975   4.461   3.459
 4527SOL    HW113913   2.063   4.448   3.504
 4527SOL    HW213914   1.962   4.558   3.437
 4528SOL     OW13915   2.475   5.089   2.588
 4528SOL    HW113916   2.426   5.002   2.597
 4528SOL    HW213917   2.452   5.132   2.501
 4529SOL     OW13918   3.155   4.952   3.285
 4529SOL    HW113919   3.192   4.879   3.227
 4529SOL    HW213920   3.207   4.957   3.370
 4530SOL     OW13921   2.671   3.728   2.364
 4530SOL    HW113922   2.711   3.819   2.355
 4530SOL    HW213923   2.571   3.736   2.370
 4531SOL     OW13924   2.059   4.700   3.126
 4531SOL    HW113925   2.148   4.655   3.112
 4531SOL    HW213926   1.986   4.635   3.107
 4532SOL     OW13927   3.387   4.723   2.052
 4532SOL    HW113928   3.324   4.647   2.065
 4532SOL    HW213929   3.435   4.741   2.138
 4533SOL     OW13930   2.179   3.975   3.663
 4533SOL    HW113931   2.250   4.046   3.669
 4533SOL    HW213932   2.091   4.014   3.691
 4534SOL     OW13933   3.328   5.141   2.815
 4534SOL    HW113934   3.269   5.147   2.895
 4534SOL    HW213935   3.313   5.053   2.769
 4535SOL     OW13936   2.460   4.453   2.132
 4535SOL    HW113937   2.484   4.522   2.064
 4535SOL    HW213938   2.382   4.486   2.186
 4536SOL     OW13939   3.143   4.069   2.806
 4536SOL    HW113940   3.057   4.019   2.793
 4536SOL    HW213941   3.205   4.015   2.862
 4537SOL     OW13942   2.669   4.329   3.327
 4537SOL    HW113943   2.622   4.326   3.416
 4537SOL    HW213944   2.618   4.274   3.261
 4538SOL     OW13945   3.256   4.193   3.536
 4538SOL    HW113946   3.236   4.236   3.624
 4538SOL    HW213947   3.334   4.131   3.545
 4539SOL     OW13948   2.835   4.614   3.434
 4539SOL    HW113949   2.881   4.530   3.405
 4539SOL    HW213950   2.779   4.648   3.359
 4540SOL     OW13951   2.853   4.134   3.104
 4540SOL    HW113952   2.776   4.168   3.158
 4540SOL    HW213953   2.819   4.083   3.025
 4541SOL     OW13954   2.903   4.425   2.291
 4541SOL    HW113955   2.929   4.421   2.387
 4541SOL    HW213956   2.818   4.374   2.277
 4542SOL     OW13957   1.938   4.535   2.651
 4542SOL    HW113958   2.037   4.523   2.660
 4542SOL    HW213959   1.914   4.630   2.672
 4543SOL     OW13960   2.727   4.072   2.057
 4543SOL    HW113961   2.786   4.135   2.008
 4543SOL    HW213962   2.746   3.978   2.028
 4544SOL     OW13963   3.581   4.309   3.693
 4544SOL    HW113964   3.555   4.398   3.657
 4544SOL    HW213965   3.579   4.241   3.620
 4545SOL     OW13966   3.224   4.868   2.407
 4545SOL    HW113967   3.307   4.839   2.359
 4545SOL    HW213968   3.175   4.935   2.351
 4546SOL     OW13969   2.412   3.920   2.747
 4546SOL    HW113970   2.407   3.915   2.847
 4546SOL    HW213971   2.414   4.016   2.718
 4547SOL     OW13972   2.870   5.180   2.339
 4547SOL    HW113973   2.824   5.252   2.287
 4547SOL    HW213974   2.866   5.200   2.437
 4548SOL     OW13975   3.657   4.790   2.735
 4548SOL    HW113976   3.595   4.775   2.659
 4548SOL    HW213977   3.605   4.801   2.820
 4549SOL     OW13978   3.089   5.274   3.368
 4549SOL    HW113979   3.095   5.197   3.432
 4549SOL    HW213980   3.037   5.248   3.288
 4550SOL     OW13981   2.183   4.667   2.104
 4550SOL    HW113982   2.265   4.706   2.062
 4550SOL    HW213983   2.156   4.585   2.055
 4551SOL     OW13984   3.320   4.459   2.590
 4551SOL    HW113985   3.315   4.394   2.665
 4551SOL    HW213986   3.400   4.518   2.603
 4552SOL     OW13987   2.323   4.990   3.589
 4552SOL    HW113988   2.273   4.991   3.503
 4552SOL    HW213989   2.260   4.972   3.665
 4553SOL     OW13990   2.973   5.500   2.099
 4553SOL    HW113991   2.913   5.438   2.149
 4553SOL    HW213992   3.004   5.456   2.014
 4554SOL     OW13993   2.064   4.009   3.360
 4554SOL    HW113994   1.984   4.069   3.347
 4554SOL    HW213995   2.054   3.960   3.446
 4555SOL     OW13996   3.494   5.101   1.943
 4555SOL    HW113997   3.462   5.195   1.933
 4555SOL    HW213998   3.418   5.038   1.931
 4556SOL     OW13999   3.262   3.831   2.288
 4556SOL    HW114000   3.238   3.794   2.198
 4556SOL    HW214001   3.361   3.847   2.292
 4557SOL     OW14002   2.244   4.424   2.342
 4557SOL    HW114003   2.289   4.334   2.339
 4557SOL    HW214004   2.150   4.413   2.375
 4558SOL     OW14005   3.409   3.946   3.591
 4558SOL    HW114006   3.404   3.983   3.683
 4558SOL    HW214007   3.337   3.877   3.579
 4559SOL     OW14008   2.476   3.846   1.979
 4559SOL    HW114009   2.574   3.824   1.986
 4559SOL    HW214010   2.445   3.829   1.886
 4560SOL     OW14011   2.643   3.988   3.611
 4560SOL    HW114012   2.710   3.927   3.654
 4560SOL    HW214013   2.570   4.007   3.676
 4561SOL     OW14014   3.213   4.314   3.295
 4561SOL    HW114015   3.241   4.271   3.380
 4561SOL    HW214016   3.238   4.410   3.296
 4562SOL     OW14017   2.665   5.126   2.786
 4562SOL    HW114018   2.755   5.140   2.744
 4562SOL    HW214019   2.594   5.128   2.715
 4563SOL     OW14020   2.784   4.227   2.761
 4563SOL    HW114021   2.759   4.218   2.665
 4563SOL    HW214022   2.832   4.145   2.792
 4564SOL     OW14023   2.401   3.788   2.374
 4564SOL    HW114024   2.320   3.789   2.432
 4564SOL    HW214025   2.404   3.871   2.319
 4565SOL     OW14026   3.296   4.912   1.903
 4565SOL    HW114027   3.328   4.836   1.960
 4565SOL    HW214028   3.204   4.939   1.933
 4566SOL     OW14029   2.159   3.759   2.033
 4566SOL    HW114030   2.208   3.843   2.012
 4566SOL    HW214031   2.221   3.694   2.078
 4567SOL     OW14032   2.797   3.960   2.342
 4567SOL    HW114033   2.749   4.001   2.264
 4567SOL    HW214034   2.896   3.958   2.323
 4568SOL     OW14035   2.938   4.407   3.326
 4568SOL    HW114036   2.858   4.346   3.329
 4568SOL    HW214037   3.019   4.354   3.302
 4569SOL     OW14038   3.089   5.294   2.655
 4569SOL    HW114039   3.110   5.368   2.590
 4569SOL    HW214040   3.157   5.294   2.728
 4570SOL     OW14041   2.321   4.876   2.603
 4570SOL    HW114042   2.250   4.849   2.668
 4570SOL    HW214043   2.295   4.848   2.510
 4571SOL     OW14044   2.894   4.273   1.878
 4571SOL    HW114045   2.853   4.355   1.839
 4571SOL    HW214046   2.958   4.299   1.951
 4572SOL     OW14047   1.940   4.280   3.248
 4572SOL    HW114048   2.032   4.279   3.207
 4572SOL    HW214049   1.934   4.354   3.315
 4573SOL     OW14050   2.423   3.946   3.009
 4573SOL    HW114051   2.461   3.862   3.046
 4573SOL    HW214052   2.335   3.965   3.053
 4574SOL     OW14053   2.728   4.178   2.504
 4574SOL    HW114054   2.696   4.250   2.442
 4574SOL    HW214055   2.752   4.097   2.451
 4575SOL     OW14056   2.879   3.763   2.615
 4575SOL    HW114057   2.807   3.768   2.546
 4575SOL    HW214058   2.855   3.694   2.684
 4576SOL     OW14059   3.291   4.897   2.729
 4576SOL    HW114060   3.236   4.813   2.722
 4576SOL    HW214061   3.317   4.926   2.637
 4577SOL     OW14062   3.328   4.314   2.854
 4577SOL    HW114063   3.298   4.219   2.861
 4577SOL    HW214064   3.401   4.330   2.920
 4578SOL     OW14065   3.719   4.557   2.239
 4578SOL    HW114066   3.761   4.493   2.303
 4578SOL    HW214067   3.681   4.506   2.161
 4579SOL     OW14068   2.350   5.109   2.036
 4579SOL    HW114069   2.263   5.094   2.083
 4579SOL    HW214070   2.333   5.135   1.941
 4580SOL     OW14071   3.526   5.004   2.519
 4580SOL    HW114072   3.625   5.012   2.533
 4580SOL    HW214073   3.481   5.088   2.550
 4581SOL     OW14074   3.252   4.299   1.940
 4581SOL    HW114075   3.198   4.278   2.021
 4581SOL    HW214076   3.343   4.258   1.949
 4582SOL     OW14077   2.389   3.980   2.190
 4582SOL    HW114078   2.416   3.921   2.115
 4582SOL    HW214079   2.389   4.075   2.159
 4583SOL     OW14080   3.616   4.947   3.450
 4583SOL    HW114081   3.707   4.908   3.437
 4583SOL    HW214082   3.624   5.043   3.474
 4584SOL     OW14083   2.926   5.071   3.202
 4584SOL    HW114084   2.846   5.048   3.257
 4584SOL    HW214085   3.009   5.045   3.251
 4585SOL     OW14086   2.973   4.919   2.962
 4585SOL    HW114087   2.933   4.963   3.043
 4585SOL    HW214088   2.932   4.956   2.879
 4586SOL     OW14089   3.500   4.823   2.941
 4586SOL    HW114090   3.505   4.904   3.000
 4586SOL    HW214091   3.414   4.825   2.890
 4587SOL     OW14092   2.777   3.813   3.264
 4587SOL    HW114093   2.802   3.793   3.169
 4587SOL    HW214094   2.849   3.869   3.306
 4588SOL     OW14095   2.842   4.840   3.581
 4588SOL    HW114096   2.743   4.846   3.591
 4588SOL    HW214097   2.865   4.760   3.525
 4589SOL     OW14098   2.567   4.774   2.230
 4589SOL    HW114099   2.553   4.781   2.329
 4589SOL    HW214100   2.651   4.723   2.212
 4590SOL     OW14101   2.272   4.537   3.113
 4590SOL    HW114102   2.358   4.549   3.163
 4590SOL    HW214103   2.230   4.450   3.140
 4591SOL     OW14104   3.136   4.110   3.124
 4591SOL    HW114105   3.157   4.184   3.188
 4591SOL    HW214106   3.047   4.127   3.081
 4592SOL     OW14107   2.229   4.824   2.363
 4592SOL    HW114108   2.222   4.907   2.307
 4592SOL    HW214109   2.233   4.744   2.303
 4593SOL     OW14110   2.428   4.261   2.727
 4593SOL    HW114111   2.440   4.327   2.653
 4593SOL    HW214112   2.474   4.295   2.810
 4594SOL     OW14113   3.114   5.072   2.250
 4594SOL    HW114114   3.164   5.149   2.290
 4594SOL    HW214115   3.019   5.074   2.282
 4595SOL     OW14116   3.134   5.169   3.004
 4595SOL    HW114117   3.181   5.182   3.091
 4595SOL    HW214118   3.068   5.095   3.013
 4596SOL     OW14119   3.444   4.363   2.334
 4596SOL    HW114120   3.413   4.424   2.407
 4596SOL    HW214121   3.494   4.415   2.265
 4597SOL     OW14122   2.216   5.234   3.191
 4597SOL    HW114123   2.195   5.190   3.104
 4597SOL    HW214124   2.313   5.260   3.194
 4598SOL     OW14125   2.264   4.475   3.460
 4598SOL    HW114126   2.332   4.530   3.413
 4598SOL    HW214127   2.304   4.387   3.487
 4599SOL     OW14128   3.449   4.503   3.532
 4599SOL    HW114129   3.357   4.541   3.527
 4599SOL    HW214130   3.509   4.550   3.467
 4600SOL     OW14131   2.875   3.829   3.632
 4600SOL    HW114132   2.881   3.914   3.580
 4600SOL    HW214133   2.907   3.753   3.575
 4601SOL     OW14134   2.366   3.774   3.602
 4601SOL    HW114135   2.324   3.717   3.532
 4601SOL    HW214136   2.300   3.843   3.634
 4602SOL     OW14137   2.435   4.594   2.891
 4602SOL    HW114138   2.479   4.683   2.882
 4602SOL    HW214139   2.372   4.594   2.968
 4603SOL     OW14140   3.222   4.586   2.907
 4603SOL    HW114141   3.147   4.586   2.841
 4603SOL    HW214142   3.259   4.494   2.916
 4604SOL     OW14143   3.071   4.249   2.137
 4604SOL    HW114144   3.084   4.165   2.191
 4604SOL    HW214145   3.042   4.323   2.197
 4605SOL     OW14146   2.169   3.937   3.093
 4605SOL    HW114147   2.146   3.974   3.183
 4605SOL    HW214148   2.139   3.842   3.087
 4606SOL     OW14149   1.899   5.034   3.144
 4606SOL    HW114150   1.952   4.985   3.212
 4606SOL    HW214151   1.921   5.132   3.149
 4607SOL     OW14152   2.594   4.358   2.926
 4607SOL    HW114153   2.653   4.332   2.850
 4607SOL    HW214154   2.566   4.454   2.915
 4608SOL     OW14155   3.590   4.659   3.716
 4608SOL    HW114156   3.544   4.652   3.627
 4608SOL    HW214157   3.528   4.703   3.782
 4609SOL     OW14158   2.169   3.787   2.480
 4609SOL    HW114159   2.158   3.881   2.513
 4609SOL    HW214160   2.164   3.724   2.557
 4610SOL     OW14161   3.484   4.091   2.236
 4610SOL    HW114162   3.486   4.015   2.300
 4610SOL    HW214163   3.436   4.168   2.276
 4611SOL     OW14164   2.885   4.490   2.828
 4611SOL    HW114165   2.900   4.511   2.924
 4611SOL    HW214166   2.855   4.395   2.819
 4612SOL     OW14167   3.721   5.242   3.467
 4612SOL    HW114168   3.735   5.269   3.372
 4612SOL    HW214169   3.804   5.264   3.520
 4613SOL     OW14170   2.212   4.622   3.666
 4613SOL    HW114171   2.288   4.666   3.714
 4613SOL    HW214172   2.247   4.575   3.584
 4614SOL     OW14173   3.402   3.998   1.987
 4614SOL    HW114174   3.341   3.923   2.010
 4614SOL    HW214175   3.424   4.050   2.070
 4615SOL     OW14176   3.165   4.562   1.904
 4615SOL    HW114177   3.199   4.469   1.919
 4615SOL    HW214178   3.183   4.589   1.809
 4616SOL     OW14179   2.930   5.057   2.711
 4616SOL    HW114180   2.937   4.973   2.656
 4616SOL    HW214181   2.992   5.126   2.675
 4617SOL     OW14182   2.181   4.534   2.811
 4617SOL    HW114183   2.274   4.570   2.816
 4617SOL    HW214184   2.175   4.449   2.863
 4618SOL     OW14185   2.201   4.233   2.868
 4618SOL    HW114186   2.149   4.150   2.851
 4618SOL    HW214187   2.278   4.238   2.804
 4619SOL     OW14188   3.000   4.104   3.540
 4619SOL    HW114189   2.955   4.167   3.604
 4619SOL    HW214190   3.093   4.135   3.523
 4620SOL     OW14191   3.022   3.931   3.339
 4620SOL    HW114192   3.022   3.995   3.416
 4620SOL    HW214193   3.050   3.979   3.256
 4621SOL     OW14194   1.870   5.050   2.062
 4621SOL    HW114195   1.777   5.071   2.031
 4621SOL    HW214196   1.880   4.951   2.075
 4622SOL     OW14197   2.864   4.520   3.100
 4622SOL    HW114198   2.905   4.488   3.186
 4622SOL    HW214199   2.768   4.493   3.097
 4623SOL     OW14200   1.902   4.268   2.976
 4623SOL    HW114201   1.987   4.235   2.935
 4623SOL    HW214202   1.915   4.283   3.074
 4624SOL     OW14203   2.051   4.244   3.584
 4624SOL    HW114204   2.110   4.204   3.514
 4624SOL    HW214205   1.993   4.315   3.543
 4625SOL     OW14206   3.231   4.674   3.522
 4625SOL    HW114207   3.270   4.763   3.542
 4625SOL    HW214208   3.241   4.654   3.425
 4626SOL     OW14209   2.677   4.296   2.187
 4626SOL    HW114210   2.684   4.207   2.141
 4626SOL    HW214211   2.583   4.330   2.179
 4627SOL     OW14212   3.519   4.328   3.068
 4627SOL    HW114213   3.481   4.259   3.130
 4627SOL    HW214214   3.601   4.292   3.024
 4628SOL     OW14215   2.114   5.288   3.606
 4628SOL    HW114216   2.084   5.345   3.682
 4628SOL    HW214217   2.107   5.191   3.632
 4629SOL     OW14218   2.533   4.188   3.131
 4629SOL    HW114219   2.499   4.099   3.101
 4629SOL    HW214220   2.559   4.242   3.051
 4630SOL     OW14221   2.335   4.224   2.053
 4630SOL    HW114222   2.396   4.304   2.057
 4630SOL    HW214223   2.240   4.255   2.060
 4631SOL     OW14224   2.021   4.861   3.328
 4631SOL    HW114225   2.043   4.800   3.404
 4631SOL    HW214226   2.031   4.812   3.242
 4632SOL     OW14227   3.209   4.783   3.096
 4632SOL    HW114228   3.233   4.720   3.022
 4632SOL    HW214229   3.119   4.823   3.078
 4633SOL     OW14230   3.164   4.579   2.171
 4633SOL    HW114231   3.078   4.548   2.213
 4633SOL    HW214232   3.160   4.565   2.072
 4634SOL     OW14233   1.945   4.982   2.884
 4634SOL    HW114234   1.940   4.981   2.984
 4634SOL    HW214235   1.862   4.941   2.846
 4635SOL     OW14236   2.550   5.386   3.578
 4635SOL    HW114237   2.494   5.467   3.587
 4635SOL    HW214238   2.602   5.390   3.492
 4636SOL     OW14239   3.588   3.859   2.385
 4636SOL    HW114240   3.661   3.842   2.318
 4636SOL    HW214241   3.557   3.772   2.423
 4637SOL     OW14242   3.142   4.651   2.534
 4637SOL    HW114243   3.202   4.570   2.536
 4637SOL    HW214244   3.182   4.720   2.474
 4638SOL     OW14245   2.692   4.997   3.284
 4638SOL    HW114246   2.687   5.030   3.379
 4638SOL    HW214247   2.606   5.016   3.238
 4639SOL     OW14248   3.703   3.899   2.825
 4639SOL    HW114249   3.742   3.814   2.789
 4639SOL    HW214250   3.605   3.901   2.806
 4640SOL     OW14251   2.125   4.050   2.582
 4640SOL    HW114252   2.046   4.101   2.548
 4640SOL    HW214253   2.116   4.035   2.680
 4641SOL     OW14254   2.684   4.726   3.234
 4641SOL    HW114255   2.724   4.725   3.142
 4641SOL    HW214256   2.694   4.818   3.274
 4642SOL     OW14257   2.778   4.634   2.153
 4642SOL    HW114258   2.841   4.672   2.085
 4642SOL    HW214259   2.818   4.551   2.192
 4643SOL     OW14260   2.234   5.012   3.352
 4643SOL    HW114261   2.221   5.105   3.318
 4643SOL    HW214262   2.150   4.960   3.339
 4644SOL     OW14263   3.476   5.016   3.151
 4644SOL    HW114264   3.536   5.019   3.231
 4644SOL    HW214265   3.401   5.080   3.164
 4645SOL     OW14266   2.901   4.822   2.558
 4645SOL    HW114267   2.831   4.775   2.612
 4645SOL    HW214268   2.960   4.754   2.515
 4646SOL     OW14269   2.876   3.960   2.833
 4646SOL    HW114270   2.868   3.924   2.740
 4646SOL    HW214271   2.874   3.884   2.898
 4647SOL     OW14272   3.571   4.109   3.243
 4647SOL    HW114273   3.644   4.178   3.247
 4647SOL    HW214274   3.599   4.034   3.184
 4648SOL     OW14275   2.117   5.072   2.152
 4648SOL    HW114276   2.021   5.073   2.125
 4648SOL    HW214277   2.129   5.125   2.236
 4649SOL     OW14278   1.967   4.737   3.588
 4649SOL    HW114279   1.890   4.704   3.642
 4649SOL    HW214280   2.052   4.707   3.630
 4650SOL     OW14281   2.534   3.927   3.351
 4650SOL    HW114282   2.624   3.911   3.311
 4650SOL    HW214283   2.542   3.932   3.450
 4651SOL     OW14284   1.937   4.069   1.895
 4651SOL    HW114285   1.845   4.041   1.866
 4651SOL    HW214286   1.968   4.146   1.839
 4652SOL     OW14287   3.302   4.580   3.260
 4652SOL    HW114288   3.245   4.632   3.197
 4652SOL    HW214289   3.398   4.592   3.236
 4653SOL     OW14290   1.934   3.890   2.180
 4653SOL    HW114291   1.917   3.973   2.126
 4653SOL    HW214292   2.024   3.853   2.158
 4654SOL     OW14293   3.045   5.059   1.981
 4654SOL    HW114294   2.946   5.048   1.983
 4654SOL    HW214295   3.079   5.074   2.074
 4655SOL     OW14296   2.475   4.566   3.293
 4655SOL    HW114297   2.531   4.647   3.276
 4655SOL    HW214298   2.534   4.486   3.296
 4656SOL     OW14299   2.578   4.289   3.570
 4656SOL    HW114300   2.597   4.354   3.644
 4656SOL    HW214301   2.638   4.209   3.579
 4657SOL     OW14302   3.312   4.944   3.495
 4657SOL    HW114303   3.303   4.934   3.594
 4657SOL    HW214304   3.408   4.937   3.469
 4658SOL     OW14305   3.536   4.607   3.116
 4658SOL    HW114306   3.509   4.518   3.079
 4658SOL    HW214307   3.537   4.675   3.043
 4659SOL     OW14308   3.087   4.049   2.311
 4659SOL    HW114309   3.152   3.975   2.300
 4659SOL    HW214310   3.107   4.099   2.395
 4660SOL     OW14311   2.456   4.469   2.514
 4660SOL    HW114312   2.506   4.554   2.495
 4660SOL    HW214313   2.368   4.471   2.466
 4661SOL     OW14314   3.639   4.066   3.504
 4661SOL    HW114315   3.622   4.097   3.410
 4661SOL    HW214316   3.555   4.029   3.542
 4662SOL     OW14317   3.592   4.658   3.379
 4662SOL    HW114318   3.630   4.749   3.394
 4662SOL    HW214319   3.584   4.641   3.280
 4663SOL     OW14320   2.721   5.098   1.878
 4663SOL    HW114321   2.675   5.113   1.966
 4663SOL    HW214322   2.765   5.183   1.848
 4664SOL     OW14323   2.721   4.680   2.723
 4664SOL    HW114324   2.775   4.611   2.771
 4664SOL    HW214325   2.689   4.749   2.789
 4665SOL     OW14326   2.945   4.708   1.949
 4665SOL    HW114327   2.922   4.761   1.867
 4665SOL    HW214328   3.026   4.652   1.930
 4666SOL     OW14329   2.083   5.038   3.706
 4666SOL    HW114330   2.018   4.965   3.685
 4666SOL    HW214331   2.087   5.052   3.804
 4667SOL     OW14332   1.941   4.964   2.515
 4667SOL    HW114333   1.940   4.917   2.603
 4667SOL    HW214334   2.023   4.936   2.464
 4668SOL     OW14335   2.534   5.115   3.486
 4668SOL    HW114336   2.456   5.065   3.524
 4668SOL    HW214337   2.531   5.210   3.517
 4669SOL     OW14338   3.686   3.916   3.089
 4669SOL    HW114339   3.682   3.826   3.133
 4669SOL    HW214340   3.689   3.905   2.990
 4670SOL     OW14341   2.290   4.148   2.382
 4670SOL    HW114342   2.320   4.076   2.320
 4670SOL    HW214343   2.251   4.108   2.465
 4671SOL     OW14344   3.567   5.211   2.966
 4671SOL    HW114345   3.474   5.186   2.939
 4671SOL    HW214346   3.593   5.161   3.048
 4672SOL     OW14347   2.179   4.271   3.142
 4672SOL    HW114348   2.217   4.212   3.214
 4672SOL    HW214349   2.219   4.245   3.054
 4673SOL     OW14350   3.286   3.938   2.974
 4673SOL    HW114351   3.338   3.873   3.029
 4673SOL    HW214352   3.237   4.001   3.035
 4674SOL     OW14353   2.863   3.758   3.016
 4674SOL    HW114354   2.800   3.686   2.985
 4674SOL    HW214355   2.956   3.722   3.016
 4675SOL     OW14356   2.632   5.054   2.163
 4675SOL    HW114357   2.586   4.967   2.180
 4675SOL    HW214358   2.723   5.051   2.204
 4676SOL     OW14359   2.480   5.291   3.146
 4676SOL    HW114360   2.475   5.373   3.203
 4676SOL    HW214361   2.569   5.288   3.101
 4677SOL     OW14362   3.214   3.776   2.030
 4677SOL    HW114363   3.249   3.735   1.946
 4677SOL    HW214364   3.124   3.738   2.050
 4678SOL     OW14365   3.162   4.177   2.553
 4678SOL    HW114366   3.103   4.257   2.557
 4678SOL    HW214367   3.177   4.142   2.646
 4679SOL     OW14368   3.455   3.945   2.744
 4679SOL    HW114369   3.371   3.944   2.798
 4679SOL    HW214370   3.457   4.028   2.688
 4680SOL     OW14371   1.901   4.801   2.162
 4680SOL    HW114372   2.000   4.790   2.153
 4680SOL    HW214373   1.861   4.715   2.194
 4681SOL     OW14374   2.092   4.352   3.837
 4681SOL    HW114375   1.999   4.350   3.874
 4681SOL    HW214376   2.093   4.313   3.745
 4682SOL     OW14377   2.087   3.999   4.720
 4682SOL    HW114378   2.122   3.982   4.812
 4682SOL    HW214379   1.999   3.954   4.708
 4683SOL     OW14380   1.881   4.092   4.371
 4683SOL    HW114381   1.799   4.135   4.410
 4683SOL    HW214382   1.853   4.019   4.308
 4684SOL     OW14383   2.431   4.999   4.889
 4684SOL    HW114384   2.338   4.992   4.852
 4684SOL    HW214385   2.442   5.088   4.933
 4685SOL     OW14386   3.417   5.235   4.427
 4685SOL    HW114387   3.360   5.219   4.508
 4685SOL    HW214388   3.358   5.245   4.347
 4686SOL     OW14389   2.997   4.427   4.441
 4686SOL    HW114390   3.054   4.505   4.416
 4686SOL    HW214391   2.937   4.453   4.517
 4687SOL     OW14392   3.617   4.331   3.955
 4687SOL    HW114393   3.605   4.318   3.856
 4687SOL    HW214394   3.587   4.250   4.004
 4688SOL     OW14395   2.630   4.868   4.747
 4688SOL    HW114396   2.552   4.885   4.807
 4688SOL    HW214397   2.664   4.955   4.711
 4689SOL     OW14398   2.712   4.522   5.547
 4689SOL    HW114399   2.708   4.598   5.612
 4689SOL    HW214400   2.734   4.558   5.456
 4690SOL     OW14401   2.547   4.736   4.389
 4690SOL    HW114402   2.616   4.720   4.459
 4690SOL    HW214403   2.474   4.793   4.427
 4691SOL     OW14404   2.548   4.885   5.527
 4691SOL    HW114405   2.608   4.964   5.541
 4691SOL    HW214406   2.462   4.916   5.486
 4692SOL     OW14407   2.197   5.159   4.785
 4692SOL    HW114408   2.119   5.128   4.732
 4692SOL    HW214409   2.255   5.217   4.728
 4693SOL     OW14410   3.322   5.229   5.063
 4693SOL    HW114411   3.346   5.323   5.089
 4693SOL    HW214412   3.306   5.175   5.145
 4694SOL     OW14413   2.300   4.116   5.223
 4694SOL    HW114414   2.382   4.060   5.232
 4694SOL    HW214415   2.219   4.058   5.227
 4695SOL     OW14416   3.465   4.171   4.461
 4695SOL    HW114417   3.391   4.217   4.411
 4695SOL    HW214418   3.516   4.239   4.514
 4696SOL     OW14419   2.989   5.065   5.414
 4696SOL    HW114420   3.036   5.065   5.502
 4696SOL    HW214421   2.941   4.978   5.403
 4697SOL     OW14422   2.092   5.158   4.262
 4697SOL    HW114423   2.066   5.254   4.262
 4697SOL    HW214424   2.021   5.104   4.307
 4698SOL     OW14425   2.102   4.815   4.610
 4698SOL    HW114426   2.116   4.731   4.662
 4698SOL    HW214427   2.047   4.879   4.665
 4699SOL     OW14428   2.468   4.688   3.847
 4699SOL    HW114429   2.475   4.772   3.793
 4699SOL    HW214430   2.514   4.701   3.935
 4700SOL     OW14431   3.456   3.838   5.204
 4700SOL    HW114432   3.438   3.905   5.132
 4700SOL    HW214433   3.453   3.884   5.293
 4701SOL     OW14434   1.984   4.367   4.287
 4701SOL    HW114435   1.939   4.279   4.304
 4701SOL    HW214436   1.983   4.421   4.371
 4702SOL     OW14437   1.889   5.320   3.841
 4702SOL    HW114438   1.870   5.224   3.862
 4702SOL    HW214439   1.856   5.378   3.916
 4703SOL     OW14440   3.551   4.646   4.336
 4703SOL    HW114441   3.646   4.617   4.344
 4703SOL    HW214442   3.543   4.711   4.261
 4704SOL     OW14443   3.503   4.832   4.156
 4704SOL    HW114444   3.589   4.834   4.104
 4704SOL    HW214445   3.517   4.879   4.244
 4705SOL     OW14446   1.975   4.461   5.321
 4705SOL    HW114447   2.063   4.448   5.366
 4705SOL    HW214448   1.962   4.558   5.299
 4706SOL     OW14449   2.475   5.089   4.450
 4706SOL    HW114450   2.426   5.002   4.459
 4706SOL    HW214451   2.452   5.132   4.363
 4707SOL     OW14452   3.155   4.952   5.147
 4707SOL    HW114453   3.192   4.879   5.089
 4707SOL    HW214454   3.207   4.957   5.232
 4708SOL     OW14455   2.671   3.728   4.226
 4708SOL    HW114456   2.711   3.819   4.217
 4708SOL    HW214457   2.571   3.736   4.232
 4709SOL     OW14458   2.059   4.700   4.988
 4709SOL    HW114459   2.148   4.655   4.974
 4709SOL    HW214460   1.986   4.635   4.969
 4710SOL     OW14461   3.387   4.723   3.914
 4710SOL    HW114462   3.324   4.647   3.927
 4710SOL    HW214463   3.435   4.741   4.000
 4711SOL     OW14464   2.179   3.975   5.525
 4711SOL    HW114465   2.250   4.046   5.531
 4711SOL    HW214466   2.091   4.014   5.553
 4712SOL     OW14467   3.328   5.141   4.677
 4712SOL    HW114468   3.269   5.147   4.757
 4712SOL    HW214469   3.313   5.053   4.631
 4713SOL     OW14470   2.460   4.453   3.994
 4713SOL    HW114471   2.484   4.522   3.926
 4713SOL    HW214472   2.382   4.486   4.048
 4714SOL     OW14473   3.143   4.069   4.668
 4714SOL    HW114474   3.057   4.019   4.655
 4714SOL    HW214475   3.205   4.015   4.724
 4715SOL     OW14476   2.669   4.329   5.189
 4715SOL    HW114477   2.622   4.326   5.278
 4715SOL    HW214478   2.618   4.274   5.123
 4716SOL     OW14479   3.256   4.193   5.398
 4716SOL    HW114480   3.236   4.236   5.486
 4716SOL    HW214481   3.334   4.131   5.407
 4717SOL     OW14482   2.835   4.614   5.296
 4717SOL    HW114483   2.881   4.530   5.267
 4717SOL    HW214484   2.779   4.648   5.221
 4718SOL     OW14485   2.853   4.134   4.966
 4718SOL    HW114486   2.776   4.168   5.020
 4718SOL    HW214487   2.819   4.083   4.887
 4719SOL     OW14488   2.903   4.425   4.153
 4719SOL    HW114489   2.929   4.421   4.249
 4719SOL    HW214490   2.818   4.374   4.139
 4720SOL     OW14491   1.938   4.535   4.513
 4720SOL    HW114492   2.037   4.523   4.522
 4720SOL    HW214493   1.914   4.630   4.534
 4721SOL     OW14494   2.727   4.072   3.919
 4721SOL    HW114495   2.786   4.135   3.870
 4721SOL    HW214496   2.746   3.978   3.890
 4722SOL     OW14497   3.581   4.309   5.555
 4722SOL    HW114498   3.555   4.398   5.519
 4722SOL    HW214499   3.579   4.241   5.482
 4723SOL     OW14500   3.224   4.868   4.269
 4723SOL    HW114501   3.307   4.839   4.221
 4723SOL    HW214502   3.175   4.935   4.213
 4724SOL     OW14503   2.412   3.920   4.609
 4724SOL    HW114504   2.407   3.915   4.709
 4724SOL    HW214505   2.414   4.016   4.580
 4725SOL     OW14506   2.870   5.180   4.201
 4725SOL    HW114507   2.824   5.252   4.149
 4725SOL    HW214508   2.866   5.200   4.299
 4726SOL     OW14509   3.657   4.790   4.597
 4726SOL    HW114510   3.595   4.775   4.521
 4726SOL    HW214511   3.605   4.801   4.682
 4727SOL     OW14512   3.089   5.274   5.230
 4727SOL    HW114513   3.095   5.197   5.294
 4727SOL    HW214514   3.037   5.248   5.150
 4728SOL     OW14515   2.183   4.667   3.966
 4728SOL    HW114516   2.265   4.706   3.924
 4728SOL    HW214517   2.156   4.585   3.917
 4729SOL     OW14518   3.320   4.459   4.452
 4729SOL    HW114519   3.315   4.394   4.527
 4729SOL    HW214520   3.400   4.518   4.465
 4730SOL     OW14521   2.323   4.990   5.451
 4730SOL    HW114522   2.273   4.991   5.365
 4730SOL    HW214523   2.260   4.972   5.527
 4731SOL     OW14524   2.973   5.500   3.961
 4731SOL    HW114525   2.913   5.438   4.011
 4731SOL    HW214526   3.004   5.456   3.876
 4732SOL     OW14527   2.064   4.009   5.222
 4732SOL    HW114528   1.984   4.069   5.209
 4732SOL    HW214529   2.054   3.960   5.308
 4733SOL     OW14530   3.494   5.101   3.805
 4733SOL    HW114531   3.462   5.195   3.795
 4733SOL    HW214532   3.418   5.038   3.793
 4734SOL     OW14533   3.262   3.831   4.150
 4734SOL    HW114534   3.238   3.794   4.060
 4734SOL    HW214535   3.361   3.847   4.154
 4735SOL     OW14536   2.244   4.424   4.204
 4735SOL    HW114537   2.289   4.334   4.201
 4735SOL    HW214538   2.150   4.413   4.237
 4736SOL     OW14539   3.409   3.946   5.453
 4736SOL    HW114540   3.404   3.983   5.545
 4736SOL    HW214541   3.337   3.877   5.441
 4737SOL     OW14542   2.476   3.846   3.841
 4737SOL    HW114543   2.574   3.824   3.848
 4737SOL    HW214544   2.445   3.829   3.748
 4738SOL     OW14545   2.643   3.988   5.473
 4738SOL    HW114546   2.710   3.927   5.516
 4738SOL    HW214547   2.570   4.007   5.538
 4739SOL     OW14548   3.213   4.314   5.157
 4739SOL    HW114549   3.241   4.271   5.242
 4739SOL    HW214550   3.238   4.410   5.158
 4740SOL     OW14551   2.665   5.126   4.648
 4740SOL    HW114552   2.755   5.140   4.606
 4740SOL    HW214553   2.594   5.128   4.577
 4741SOL     OW14554   2.784   4.227   4.623
 4741SOL    HW114555   2.759   4.218   4.527
 4741SOL    HW214556   2.832   4.145   4.654
 4742SOL     OW14557   2.401   3.788   4.236
 4742SOL    HW114558   2.320   3.789   4.294
 4742SOL    HW214559   2.404   3.871   4.181
 4743SOL     OW14560   3.296   4.912   3.765
 4743SOL    HW114561   3.328   4.836   3.822
 4743SOL    HW214562   3.204   4.939   3.795
 4744SOL     OW14563   2.159   3.759   3.895
 4744SOL    HW114564   2.208   3.843   3.874
 4744SOL    HW214565   2.221   3.694   3.940
 4745SOL     OW14566   2.797   3.960   4.204
 4745SOL    HW114567   2.749   4.001   4.126
 4745SOL    HW214568   2.896   3.958   4.185
 4746SOL     OW14569   2.938   4.407   5.188
 4746SOL    HW114570   2.858   4.346   5.191
 4746SOL    HW214571   3.019   4.354   5.164
 4747SOL     OW14572   3.089   5.294   4.517
 4747SOL    HW114573   3.110   5.368   4.452
 4747SOL    HW214574   3.157   5.294   4.590
 4748SOL     OW14575   2.321   4.876   4.465
 4748SOL    HW114576   2.250   4.849   4.530
 4748SOL    HW214577   2.295   4.848   4.372
 4749SOL     OW14578   2.894   4.273   3.740
 4749SOL    HW114579   2.853   4.355   3.701
 4749SOL    HW214580   2.958   4.299   3.813
 4750SOL     OW14581   1.940   4.280   5.110
 4750SOL    HW114582   2.032   4.279   5.069
 4750SOL    HW214583   1.934   4.354   5.177
 4751SOL     OW14584   2.423   3.946   4.871
 4751SOL    HW114585   2.461   3.862   4.908
 4751SOL    HW214586   2.335   3.965   4.915
 4752SOL     OW14587   2.728   4.178   4.366
 4752SOL    HW114588   2.696   4.250   4.304
 4752SOL    HW214589   2.752   4.097   4.313
 4753SOL     OW14590   2.879   3.763   4.477
 4753SOL    HW114591   2.807   3.768   4.408
 4753SOL    HW214592   2.855   3.694   4.546
 4754SOL     OW14593   3.291   4.897   4.591
 4754SOL    HW114594   3.236   4.813   4.584
 4754SOL    HW214595   3.317   4.926   4.499
 4755SOL     OW14596   3.328   4.314   4.716
 4755SOL    HW114597   3.298   4.219   4.723
 4755SOL    HW214598   3.401   4.330   4.782
 4756SOL     OW14599   3.719   4.557   4.101
 4756SOL    HW114600   3.761   4.493   4.165
 4756SOL    HW214601   3.681   4.506   4.023
 4757SOL     OW14602   2.350   5.109   3.898
 4757SOL    HW114603   2.263   5.094   3.945
 4757SOL    HW214604   2.333   5.135   3.803
 4758SOL     OW14605   3.526   5.004   4.381
 4758SOL    HW114606   3.625   5.012   4.395
 4758SOL    HW214607   3.481   5.088   4.412
 4759SOL     OW14608   3.252   4.299   3.802
 4759SOL    HW114609   3.198   4.278   3.883
 4759SOL    HW214610   3.343   4.258   3.811
 4760SOL     OW14611   2.389   3.980   4.052
 4760SOL    HW114612   2.416   3.921   3.977
 4760SOL    HW214613   2.389   4.075   4.021
 4761SOL     OW14614   3.616   4.947   5.312
 4761SOL    HW114615   3.707   4.908   5.299
 4761SOL    HW214616   3.624   5.043   5.336
 4762SOL     OW14617   2.926   5.071   5.064
 4762SOL    HW114618   2.846   5.048   5.119
 4762SOL    HW214619   3.009   5.045   5.113
 4763SOL     OW14620   2.973   4.919   4.824
 4763SOL    HW114621   2.933   4.963   4.905
 4763SOL    HW214622   2.932   4.956   4.741
 4764SOL     OW14623   3.500   4.823   4.803
 4764SOL    HW114624   3.505   4.904   4.862
 4764SOL    HW214625   3.414   4.825   4.752
 4765SOL     OW14626   2.777   3.813   5.126
 4765SOL    HW114627   2.802   3.793   5.031
 4765SOL    HW214628   2.849   3.869   5.168
 4766SOL     OW14629   2.842   4.840   5.443
 4766SOL    HW114630   2.743   4.846   5.453
 4766SOL    HW214631   2.865   4.760   5.387
 4767SOL     OW14632   2.567   4.774   4.092
 4767SOL    HW114633   2.553   4.781   4.191
 4767SOL    HW214634   2.651   4.723   4.074
 4768SOL     OW14635   2.272   4.537   4.975
 4768SOL    HW114636   2.358   4.549   5.025
 4768SOL    HW214637   2.230   4.450   5.002
 4769SOL     OW14638   3.136   4.110   4.986
 4769SOL    HW114639   3.157   4.184   5.050
 4769SOL    HW214640   3.047   4.127   4.943
 4770SOL     OW14641   2.229   4.824   4.225
 4770SOL    HW114642   2.222   4.907   4.169
 4770SOL    HW214643   2.233   4.744   4.165
 4771SOL     OW14644   2.428   4.261   4.589
 4771SOL    HW114645   2.440   4.327   4.515
 4771SOL    HW214646   2.474   4.295   4.672
 4772SOL     OW14647   3.114   5.072   4.112
 4772SOL    HW114648   3.164   5.149   4.152
 4772SOL    HW214649   3.019   5.074   4.144
 4773SOL     OW14650   3.134   5.169   4.866
 4773SOL    HW114651   3.181   5.182   4.953
 4773SOL    HW214652   3.068   5.095   4.875
 4774SOL     OW14653   3.444   4.363   4.196
 4774SOL    HW114654   3.413   4.424   4.269
 4774SOL    HW214655   3.494   4.415   4.127
 4775SOL     OW14656   2.216   5.234   5.053
 4775SOL    HW114657   2.195   5.190   4.966
 4775SOL    HW214658   2.313   5.260   5.056
 4776SOL     OW14659   2.264   4.475   5.322
 4776SOL    HW114660   2.332   4.530   5.275
 4776SOL    HW214661   2.304   4.387   5.349
 4777SOL     OW14662   3.449   4.503   5.394
 4777SOL    HW114663   3.357   4.541   5.389
 4777SOL    HW214664   3.509   4.550   5.329
 4778SOL     OW14665   2.875   3.829   5.494
 4778SOL    HW114666   2.881   3.914   5.442
 4778SOL    HW214667   2.907   3.753   5.437
 4779SOL     OW14668   2.366   3.774   5.464
 4779SOL    HW114669   2.324   3.717   5.394
 4779SOL    HW214670   2.300   3.843   5.496
 4780SOL     OW14671   2.435   4.594   4.753
 4780SOL    HW114672   2.479   4.683   4.744
 4780SOL    HW214673   2.372   4.594   4.830
 4781SOL     OW14674   3.222   4.586   4.769
 4781SOL    HW114675   3.147   4.586   4.703
 4781SOL    HW214676   3.259   4.494   4.778
 4782SOL     OW14677   3.071   4.249   3.999
 4782SOL    HW114678   3.084   4.165   4.053
 4782SOL    HW214679   3.042   4.323   4.059
 4783SOL     OW14680   2.169   3.937   4.955
 4783SOL    HW114681   2.146   3.974   5.045
 4783SOL    HW214682   2.139   3.842   4.949
 4784SOL     OW14683   1.899   5.034   5.006
 4784SOL    HW114684   1.952   4.985   5.074
 4784SOL    HW214685   1.921   5.132   5.011
 4785SOL     OW14686   2.594   4.358   4.788
 4785SOL    HW114687   2.653   4.332   4.712
 4785SOL    HW214688   2.566   4.454   4.777
 4786SOL     OW14689   3.590   4.659   5.578
 4786SOL    HW114690   3.544   4.652   5.489
 4786SOL    HW214691   3.528   4.703   5.644
 4787SOL     OW14692   2.169   3.787   4.342
 4787SOL    HW114693   2.158   3.881   4.375
 4787SOL    HW214694   2.164   3.724   4.419
 4788SOL     OW14695   3.484   4.091   4.098
 4788SOL    HW114696   3.486   4.015   4.162
 4788SOL    HW214697   3.436   4.168   4.138
 4789SOL     OW14698   2.885   4.490   4.690
 4789SOL    HW114699   2.900   4.511   4.786
 4789SOL    HW214700   2.855   4.395   4.681
 4790SOL     OW14701   3.721   5.242   5.329
 4790SOL    HW114702   3.735   5.269   5.234
 4790SOL    HW214703   3.804   5.264   5.382
 4791SOL     OW14704   2.212   4.622   5.528
 4791SOL    HW114705   2.288   4.666   5.576
 4791SOL    HW214706   2.247   4.575   5.446
 4792SOL     OW14707   3.402   3.998   3.849
 4792SOL    HW114708   3.341   3.923   3.872
 4792SOL    HW214709   3.424   4.050   3.932
 4793SOL     OW14710   3.165   4.562   3.766
 4793SOL    HW114711   3.199   4.469   3.781
 4793SOL    HW214712   3.183   4.589   3.671
 4794SOL     OW14713   2.930   5.057   4.573
 4794SOL    HW114714   2.937   4.973   4.518
 4794SOL    HW214715   2.992   5.126   4.537
 4795SOL     OW14716   2.181   4.534   4.673
 4795SOL    HW114717   2.274   4.570   4.678
 4795SOL    HW214718   2.175   4.449   4.725
 4796SOL     OW14719   2.201   4.233   4.730
 4796SOL    HW114720   2.149   4.150   4.713
 4796SOL    HW214721   2.278   4.238   4.666
 4797SOL     OW14722   3.000   4.104   5.402
 4797SOL    HW114723   2.955   4.167   5.466
 4797SOL    HW214724   3.093   4.135   5.385
 4798SOL     OW14725   3.022   3.931   5.201
 4798SOL    HW114726   3.022   3.995   5.278
 4798SOL    HW214727   3.050   3.979   5.118
 4799SOL     OW14728   1.870   5.050   3.924
 4799SOL    HW114729   1.777   5.071   3.893
 4799SOL    HW214730   1.880   4.951   3.937
 4800SOL     OW14731   2.864   4.520   4.962
 4800SOL    HW114732   2.905   4.488   5.048
 4800SOL    HW214733   2.768   4.493   4.959
 4801SOL     OW14734   1.902   4.268   4.838
 4801SOL    HW114735   1.987   4.235   4.797
 4801SOL    HW214736   1.915   4.283   4.936
 4802SOL     OW14737   2.051   4.244   5.446
 4802SOL    HW114738   2.110   4.204   5.376
 4802SOL    HW214739   1.993   4.315   5.405
 4803SOL     OW14740   3.231   4.674   5.384
 4803SOL    HW114741   3.270   4.763   5.404
 4803SOL    HW214742   3.241   4.654   5.287
 4804SOL     OW14743   2.677   4.296   4.049
 4804SOL    HW114744   2.684   4.207   4.003
 4804SOL    HW214745   2.583   4.330   4.041
 4805SOL     OW14746   3.519   4.328   4.930
 4805SOL    HW114747   3.481   4.259   4.992
 4805SOL    HW214748   3.601   4.292   4.886
 4806SOL     OW14749   2.114   5.288   5.468
 4806SOL    HW114750   2.084   5.345   5.544
 4806SOL    HW214751   2.107   5.191   5.494
 4807SOL     OW14752   2.533   4.188   4.993
 4807SOL    HW114753   2.499   4.099   4.963
 4807SOL    HW214754   2.559   4.242   4.913
 4808SOL     OW14755   2.335   4.224   3.915
 4808SOL    HW114756   2.396   4.304   3.919
 4808SOL    HW214757   2.240   4.255   3.922
 4809SOL     OW14758   2.021   4.861   5.190
 4809SOL    HW114759   2.043   4.800   5.266
 4809SOL    HW214760   2.031   4.812   5.104
 4810SOL     OW14761   3.209   4.783   4.958
 4810SOL    HW114762   3.233   4.720   4.884
 4810SOL    HW214763   3.119   4.823   4.940
 4811SOL     OW14764   3.164   4.579   4.033
 4811SOL    HW114765   3.078   4.548   4.075
 4811SOL    HW214766   3.160   4.565   3.934
 4812SOL     OW14767   1.945   4.982   4.746
 4812SOL    HW114768   1.940   4.981   4.846
 4812SOL    HW214769   1.862   4.941   4.708
 4813SOL     OW14770   2.550   5.386   5.440
 4813SOL    HW114771   2.494   5.467   5.449
 4813SOL    HW214772   2.602   5.390   5.354
 4814SOL     OW14773   3.588   3.859   4.247
 4814SOL    HW114774   3.661   3.842   4.180
 4814SOL    HW214775   3.557   3.772   4.285
 4815SOL     OW14776   3.142   4.651   4.396
 4815SOL    HW114777   3.202   4.570   4.398
 4815SOL    HW214778   3.182   4.720   4.336
 4816SOL     OW14779   2.692   4.997   5.146
 4816SOL    HW114780   2.687   5.030   5.241
 4816SOL    HW214781   2.606   5.016   5.100
 4817SOL     OW14782   3.703   3.899   4.687
 4817SOL    HW114783   3.742   3.814   4.651
 4817SOL    HW214784   3.605   3.901   4.668
 4818SOL     OW14785   2.125   4.050   4.444
 4818SOL    HW114786   2.046   4.101   4.410
 4818SOL    HW214787   2.116   4.035   4.542
 4819SOL     OW14788   2.684   4.726   5.096
 4819SOL    HW114789   2.724   4.725   5.004
 4819SOL    HW214790   2.694   4.818   5.136
 4820SOL     OW14791   2.778   4.634   4.015
 4820SOL    HW114792   2.841   4.672   3.947
 4820SOL    HW214793   2.818   4.551   4.054
 4821SOL     OW14794   2.234   5.012   5.214
 4821SOL    HW114795   2.221   5.105   5.180
 4821SOL    HW214796   2.150   4.960   5.201
 4822SOL     OW14797   3.476   5.016   5.013
 4822SOL    HW114798   3.536   5.019   5.093
 4822SOL    HW214799   3.401   5.080   5.026
 4823SOL     OW14800   2.901   4.822   4.420
 4823SOL    HW114801   2.831   4.775   4.474
 4823SOL    HW214802   2.960   4.754   4.377
 4824SOL     OW14803   2.876   3.960   4.695
 4824SOL    HW114804   2.868   3.924   4.602
 4824SOL    HW214805   2.874   3.884   4.760
 4825SOL     OW14806   3.571   4.109   5.105
 4825SOL    HW114807   3.644   4.178   5.109
 4825SOL    HW214808   3.599   4.034   5.046
 4826SOL     OW14809   2.117   5.072   4.014
 4826SOL    HW114810   2.021   5.073   3.987
 4826SOL    HW214811   2.129   5.125   4.098
 4827SOL     OW14812   1.967   4.737   5.450
 4827SOL    HW114813   1.890   4.704   5.504
 4827SOL    HW214814   2.052   4.707   5.492
 4828SOL     OW14815   2.534   3.927   5.213
 4828SOL    HW114816   2.624   3.911   5.173
 4828SOL    HW214817   2.542   3.932   5.312
 4829SOL     OW14818   1.937   4.069   3.757
 4829SOL    HW114819   1.845   4.041   3.728
 4829SOL    HW214820   1.968   4.146   3.701
 4830SOL     OW14821   3.302   4.580   5.122
 4830SOL    HW114822   3.245   4.632   5.059
 4830SOL    HW214823   3.398   4.592   5.098
 4831SOL     OW14824   1.934   3.890   4.042
 4831SOL    HW114825   1.917   3.973   3.988
 4831SOL    HW214826   2.024   3.853   4.020
 4832SOL     OW14827   3.045   5.059   3.843
 4832SOL    HW114828   2.946   5.048   3.845
 4832SOL    HW214829   3.079   5.074   3.936
 4833SOL     OW14830   2.475   4.566   5.155
 4833SOL    HW114831   2.531   4.647   5.138
 4833SOL    HW214832   2.534   4.486   5.158
 4834SOL     OW14833   2.578   4.289   5.432
 4834SOL    HW114834   2.597   4.354   5.506
 4834SOL    HW214835   2.638   4.209   5.441
 4835SOL     OW14836   3.312   4.944   5.357
 4835SOL    HW114837   3.303   4.934   5.456
 4835SOL    HW214838   3.408   4.937   5.331
 4836SOL     OW14839   3.536   4.607   4.978
 4836SOL    HW114840   3.509   4.518   4.941
 4836SOL    HW214841   3.537   4.675   4.905
 4837SOL     OW14842   3.087   4.049   4.173
 4837SOL    HW114843   3.152   3.975   4.162
 4837SOL    HW214844   3.107   4.099   4.257
 4838SOL     OW14845   2.456   4.469   4.376
 4838SOL    HW114846   2.506   4.554   4.357
 4838SOL    HW214847   2.368   4.471   4.328
 4839SOL     OW14848   3.639   4.066   5.366
 4839SOL    HW114849   3.622   4.097   5.272
 4839SOL    HW214850   3.555   4.029   5.404
 4840SOL     OW14851   3.592   4.658   5.241
 4840SOL    HW114852   3.630   4.749   5.256
 4840SOL    HW214853   3.584   4.641   5.142
 4841SOL     OW14854   2.721   5.098   3.740
 4841SOL    HW114855   2.675   5.113   3.828
 4841SOL    HW214856   2.765   5.183   3.710
 4842SOL     OW14857   2.721   4.680   4.585
 4842SOL    HW114858   2.775   4.611   4.633
 4842SOL    HW214859   2.689   4.749   4.651
 4843SOL     OW14860   2.945   4.708   3.811
 4843SOL    HW114861   2.922   4.761   3.729
 4843SOL    HW214862   3.026   4.652   3.792
 4844SOL     OW14863   2.083   5.038   5.568
 4844SOL    HW114864   2.018   4.965   5.547
 4844SOL    HW214865   2.087   5.052   5.666
 4845SOL     OW14866   1.941   4.964   4.377
 4845SOL    HW114867   1.940   4.917   4.465
 4845SOL    HW214868   2.023   4.936   4.326
 4846SOL     OW14869   2.534   5.115   5.348
 4846SOL    HW114870   2.456   5.065   5.386
 4846SOL    HW214871   2.531   5.210   5.379
 4847SOL     OW14872   3.686   3.916   4.951
 4847SOL    HW114873   3.682   3.826   4.995
 4847SOL    HW214874   3.689   3.905   4.852
 4848SOL     OW14875   2.290   4.148   4.244
 4848SOL    HW114876   2.320   4.076   4.182
 4848SOL    HW214877   2.251   4.108   4.327
 4849SOL     OW14878   3.567   5.211   4.828
 4849SOL    HW114879   3.474   5.186   4.801
 4849SOL    HW214880   3.593   5.161   4.910
 4850SOL     OW14881   2.179   4.271   5.004
 4850SOL    HW114882   2.217   4.212   5.076
 4850SOL    HW214883   2.219   4.245   4.916
 4851SOL     OW14884   3.286   3.938   4.836
 4851SOL    HW114885   3.338   3.873   4.891
 4851SOL    HW214886   3.237   4.001   4.897
 4852SOL     OW14887   2.863   3.758   4.878
 4852SOL    HW114888   2.800   3.686   4.847
 4852SOL    HW214889   2.956   3.722   4.878
 4853SOL     OW14890   2.632   5.054   4.025
 4853SOL    HW114891   2.586   4.967   4.042
 4853SOL    HW214892   2.723   5.051   4.066
 4854SOL     OW14893   2.480   5.291   5.008
 4854SOL    HW114894   2.475   5.373   5.065
 4854SOL    HW214895   2.569   5.288   4.963
 4855SOL     OW14896   3.214   3.776   3.892
 4855SOL    HW114897   3.249   3.735   3.808
 4855SOL    HW214898   3.124   3.738   3.912
 4856SOL     OW14899   3.162   4.177   4.415
 4856SOL    HW114900   3.103   4.257   4.419
 4856SOL    HW214901   3.177   4.142   4.508
 4857SOL     OW14902   3.455   3.945   4.606
 4857SOL    HW114903   3.371   3.944   4.660
 4857SOL    HW214904   3.457   4.028   4.550
 4858SOL     OW14905   1.901   4.801   4.024
 4858SOL    HW114906   2.000   4.790   4.015
 4858SOL    HW214907   1.861   4.715   4.056
 4859SOL     OW14908   2.092   4.352   5.699
 4859SOL    HW114909   1.999   4.350   5.736
 4859SOL    HW214910   2.093   4.313   5.607
 4860SOL     OW14911   2.087   3.999   6.582
 4860SOL    HW114912   2.122   3.982   6.674
 4860SOL    HW214913   1.999   3.954   6.570
 4861SOL     OW14914   1.881   4.092   6.233
 4861SOL    HW114915   1.799   4.135   6.272
 4861SOL    HW214916   1.853   4.019   6.170
 4862SOL     OW14917   2.431   4.999   6.751
 4862SOL    HW114918   2.338   4.992   6.714
 4862SOL    HW214919   2.442   5.088   6.795
 4863SOL     OW14920   3.417   5.235   6.289
 4863SOL    HW114921   3.360   5.219   6.370
 4863SOL    HW214922   3.358   5.245   6.209
 4864SOL     OW14923   2.997   4.427   6.303
 4864SOL    HW114924   3.054   4.505   6.278
 4864SOL    HW214925   2.937   4.453   6.379
 4865SOL     OW14926   3.617   4.331   5.817
 4865SOL    HW114927   3.605   4.318   5.718
 4865SOL    HW214928   3.587   4.250   5.866
 4866SOL     OW14929   2.630   4.868   6.609
 4866SOL    HW114930   2.552   4.885   6.669
 4866SOL    HW214931   2.664   4.955   6.573
 4867SOL     OW14932   2.712   4.522   7.409
 4867SOL    HW114933   2.708   4.598   7.474
 4867SOL    HW214934   2.734   4.558   7.318
 4868SOL     OW14935   2.547   4.736   6.251
 4868SOL    HW114936   2.616   4.720   6.321
 4868SOL    HW214937   2.474   4.793   6.289
 4869SOL     OW14938   2.548   4.885   7.389
 4869SOL    HW114939   2.608   4.964   7.403
 4869SOL    HW214940   2.462   4.916   7.348
 4870SOL     OW14941   2.197   5.159   6.647
 4870SOL    HW114942   2.119   5.128   6.594
 4870SOL    HW214943   2.255   5.217   6.590
 4871SOL     OW14944   3.322   5.229   6.925
 4871SOL    HW114945   3.346   5.323   6.951
 4871SOL    HW214946   3.306   5.175   7.007
 4872SOL     OW14947   2.300   4.116   7.085
 4872SOL    HW114948   2.382   4.060   7.094
 4872SOL    HW214949   2.219   4.058   7.089
 4873SOL     OW14950   3.465   4.171   6.323
 4873SOL    HW114951   3.391   4.217   6.273
 4873SOL    HW214952   3.516   4.239   6.376
 4874SOL     OW14953   2.989   5.065   7.276
 4874SOL    HW114954   3.036   5.065   7.364
 4874SOL    HW214955   2.941   4.978   7.265
 4875SOL     OW14956   2.092   5.158   6.124
 4875SOL    HW114957   2.066   5.254   6.124
 4875SOL    HW214958   2.021   5.104   6.169
 4876SOL     OW14959   2.102   4.815   6.472
 4876SOL    HW114960   2.116   4.731   6.524
 4876SOL    HW214961   2.047   4.879   6.527
 4877SOL     OW14962   2.468   4.688   5.709
 4877SOL    HW114963   2.475   4.772   5.655
 4877SOL    HW214964   2.514   4.701   5.797
 4878SOL     OW14965   3.456   3.838   7.066
 4878SOL    HW114966   3.438   3.905   6.994
 4878SOL    HW214967   3.453   3.884   7.155
 4879SOL     OW14968   1.984   4.367   6.149
 4879SOL    HW114969   1.939   4.279   6.166
 4879SOL    HW214970   1.983   4.421   6.233
 4880SOL     OW14971   1.889   5.320   5.703
 4880SOL    HW114972   1.870   5.224   5.724
 4880SOL    HW214973   1.856   5.378   5.778
 4881SOL     OW14974   3.551   4.646   6.198
 4881SOL    HW114975   3.646   4.617   6.206
 4881SOL    HW214976   3.543   4.711   6.123
 4882SOL     OW14977   3.503   4.832   6.018
 4882SOL    HW114978   3.589   4.834   5.966
 4882SOL    HW214979   3.517   4.879   6.106
 4883SOL     OW14980   1.975   4.461   7.183
 4883SOL    HW114981   2.063   4.448   7.228
 4883SOL    HW214982   1.962   4.558   7.161
 4884SOL     OW14983   2.475   5.089   6.312
 4884SOL    HW114984   2.426   5.002   6.321
 4884SOL    HW214985   2.452   5.132   6.225
 4885SOL     OW14986   3.155   4.952   7.009
 4885SOL    HW114987   3.192   4.879   6.951
 4885SOL    HW214988   3.207   4.957   7.094
 4886SOL     OW14989   2.671   3.728   6.088
 4886SOL    HW114990   2.711   3.819   6.079
 4886SOL    HW214991   2.571   3.736   6.094
 4887SOL     OW14992   2.059   4.700   6.850
 4887SOL    HW114993   2.148   4.655   6.836
 4887SOL    HW214994   1.986   4.635   6.831
 4888SOL     OW14995   3.387   4.723   5.776
 4888SOL    HW114996   3.324   4.647   5.789
 4888SOL    HW214997   3.435   4.741   5.862
 4889SOL     OW14998   2.179   3.975   7.387
 4889SOL    HW114999   2.250   4.046   7.393
 4889SOL    HW215000   2.091   4.014   7.415
 4890SOL     OW15001   3.328   5.141   6.539
 4890SOL    HW115002   3.269   5.147   6.619
 4890SOL    HW215003   3.313   5.053   6.493
 4891SOL     OW15004   2.460   4.453   5.856
 4891SOL    HW115005   2.484   4.522   5.788
 4891SOL    HW215006   2.382   4.486   5.910
 4892SOL     OW15007   3.143   4.069   6.530
 4892SOL    HW115008   3.057   4.019   6.517
 4892SOL    HW215009   3.205   4.015   6.586
 4893SOL     OW15010   2.669   4.329   7.051
 4893SOL    HW115011   2.622   4.326   7.140
 4893SOL    HW215012   2.618   4.274   6.985
 4894SOL     OW15013   3.256   4.193   7.260
 4894SOL    HW115014   3.236   4.236   7.348
 4894SOL    HW215015   3.334   4.131   7.269
 4895SOL     OW15016   2.835   4.614   7.158
 4895SOL    HW115017   2.881   4.530   7.129
 4895SOL    HW215018   2.779   4.648   7.083
 4896SOL     OW15019   2.853   4.134   6.828
 4896SOL    HW115020   2.776   4.168   6.882
 4896SOL    HW215021   2.819   4.083   6.749
 4897SOL     OW15022   2.903   4.425   6.015
 4897SOL    HW115023   2.929   4.421   6.111
 4897SOL    HW215024   2.818   4.374   6.001
 4898SOL     OW15025   1.938   4.535   6.375
 4898SOL    HW115026   2.037   4.523   6.384
 4898SOL    HW215027   1.914   4.630   6.396
 4899SOL     OW15028   2.727   4.072   5.781
 4899SOL    HW115029   2.786   4.135   5.732
 4899SOL    HW215030   2.746   3.978   5.752
 4900SOL     OW15031   3.581   4.309   7.417
 4900SOL    HW115032   3.555   4.398   7.381
 4900SOL    HW215033   3.579   4.241   7.344
 4901SOL     OW15034   3.224   4.868   6.131
 4901SOL    HW115035   3.307   4.839   6.083
 4901SOL    HW215036   3.175   4.935   6.075
 4902SOL     OW15037   2.412   3.920   6.471
 4902SOL    HW115038   2.407   3.915   6.571
 4902SOL    HW215039   2.414   4.016   6.442
 4903SOL     OW15040   2.870   5.180   6.063
 4903SOL    HW115041   2.824   5.252   6.011
 4903SOL    HW215042   2.866   5.200   6.161
 4904SOL     OW15043   3.657   4.790   6.459
 4904SOL    HW115044   3.595   4.775   6.383
 4904SOL    HW215045   3.605   4.801   6.544
 4905SOL     OW15046   3.089   5.274   7.092
 4905SOL    HW115047   3.095   5.197   7.156
 4905SOL    HW215048   3.037   5.248   7.012
 4906SOL     OW15049   2.183   4.667   5.828
 4906SOL    HW115050   2.265   4.706   5.786
 4906SOL    HW215051   2.156   4.585   5.779
 4907SOL     OW15052   3.320   4.459   6.314
 4907SOL    HW115053   3.315   4.394   6.389
 4907SOL    HW215054   3.400   4.518   6.327
 4908SOL     OW15055   2.323   4.990   7.313
 4908SOL    HW115056   2.273   4.991   7.227
 4908SOL    HW215057   2.260   4.972   7.389
 4909SOL     OW15058   2.973   5.500   5.823
 4909SOL    HW115059   2.913   5.438   5.873
 4909SOL    HW215060   3.004   5.456   5.738
 4910SOL     OW15061   2.064   4.009   7.084
 4910SOL    HW115062   1.984   4.069   7.071
 4910SOL    HW215063   2.054   3.960   7.170
 4911SOL     OW15064   3.494   5.101   5.667
 4911SOL    HW115065   3.462   5.195   5.657
 4911SOL    HW215066   3.418   5.038   5.655
 4912SOL     OW15067   3.262   3.831   6.012
 4912SOL    HW115068   3.238   3.794   5.922
 4912SOL    HW215069   3.361   3.847   6.016
 4913SOL     OW15070   2.244   4.424   6.066
 4913SOL    HW115071   2.289   4.334   6.063
 4913SOL    HW215072   2.150   4.413   6.099
 4914SOL     OW15073   3.409   3.946   7.315
 4914SOL    HW115074   3.404   3.983   7.407
 4914SOL    HW215075   3.337   3.877   7.303
 4915SOL     OW15076   2.476   3.846   5.703
 4915SOL    HW115077   2.574   3.824   5.710
 4915SOL    HW215078   2.445   3.829   5.610
 4916SOL     OW15079   2.643   3.988   7.335
 4916SOL    HW115080   2.710   3.927   7.378
 4916SOL    HW215081   2.570   4.007   7.400
 4917SOL     OW15082   3.213   4.314   7.019
 4917SOL    HW115083   3.241   4.271   7.104
 4917SOL    HW215084   3.238   4.410   7.020
 4918SOL     OW15085   2.665   5.126   6.510
 4918SOL    HW115086   2.755   5.140   6.468
 4918SOL    HW215087   2.594   5.128   6.439
 4919SOL     OW15088   2.784   4.227   6.485
 4919SOL    HW115089   2.759   4.218   6.389
 4919SOL    HW215090   2.832   4.145   6.516
 4920SOL     OW15091   2.401   3.788   6.098
 4920SOL    HW115092   2.320   3.789   6.156
 4920SOL    HW215093   2.404   3.871   6.043
 4921SOL     OW15094   3.296   4.912   5.627
 4921SOL    HW115095   3.328   4.836   5.684
 4921SOL    HW215096   3.204   4.939   5.657
 4922SOL     OW15097   2.159   3.759   5.757
 4922SOL    HW115098   2.208   3.843   5.736
 4922SOL    HW215099   2.221   3.694   5.802
 4923SOL     OW15100   2.797   3.960   6.066
 4923SOL    HW115101   2.749   4.001   5.988
 4923SOL    HW215102   2.896   3.958   6.047
 4924SOL     OW15103   2.938   4.407   7.050
 4924SOL    HW115104   2.858   4.346   7.053
 4924SOL    HW215105   3.019   4.354   7.026
 4925SOL     OW15106   3.089   5.294   6.379
 4925SOL    HW115107   3.110   5.368   6.314
 4925SOL    HW215108   3.157   5.294   6.452
 4926SOL     OW15109   2.321   4.876   6.327
 4926SOL    HW115110   2.250   4.849   6.392
 4926SOL    HW215111   2.295   4.848   6.234
 4927SOL     OW15112   2.894   4.273   5.602
 4927SOL    HW115113   2.853   4.355   5.563
 4927SOL    HW215114   2.958   4.299   5.675
 4928SOL     OW15115   1.940   4.280   6.972
 4928SOL    HW115116   2.032   4.279   6.931
 4928SOL    HW215117   1.934   4.354   7.039
 4929SOL     OW15118   2.423   3.946   6.733
 4929SOL    HW115119   2.461   3.862   6.770
 4929SOL    HW215120   2.335   3.965   6.777
 4930SOL     OW15121   2.728   4.178   6.228
 4930SOL    HW115122   2.696   4.250   6.166
 4930SOL    HW215123   2.752   4.097   6.175
 4931SOL     OW15124   2.879   3.763   6.339
 4931SOL    HW115125   2.807   3.768   6.270
 4931SOL    HW215126   2.855   3.694   6.408
 4932SOL     OW15127   3.291   4.897   6.453
 4932SOL    HW115128   3.236   4.813   6.446
 4932SOL    HW215129   3.317   4.926   6.361
 4933SOL     OW15130   3.328   4.314   6.578
 4933SOL    HW115131   3.298   4.219   6.585
 4933SOL    HW215132   3.401   4.330   6.644
 4934SOL     OW15133   3.719   4.557   5.963
 4934SOL    HW115134   3.761   4.493   6.027
 4934SOL    HW215135   3.681   4.506   5.885
 4935SOL     OW15136   2.350   5.109   5.760
 4935SOL    HW115137   2.263   5.094   5.807
 4935SOL    HW215138   2.333   5.135   5.665
 4936SOL     OW15139   3.526   5.004   6.243
 4936SOL    HW115140   3.625   5.012   6.257
 4936SOL    HW215141   3.481   5.088   6.274
 4937SOL     OW15142   3.252   4.299   5.664
 4937SOL    HW115143   3.198   4.278   5.745
 4937SOL    HW215144   3.343   4.258   5.673
 4938SOL     OW15145   2.389   3.980   5.914
 4938SOL    HW115146   2.416   3.921   5.839
 4938SOL    HW215147   2.389   4.075   5.883
 4939SOL     OW15148   3.616   4.947   7.174
 4939SOL    HW115149   3.707   4.908   7.161
 4939SOL    HW215150   3.624   5.043   7.198
 4940SOL     OW15151   2.926   5.071   6.926
 4940SOL    HW115152   2.846   5.048   6.981
 4940SOL    HW215153   3.009   5.045   6.975
 4941SOL     OW15154   2.973   4.919   6.686
 4941SOL    HW115155   2.933   4.963   6.767
 4941SOL    HW215156   2.932   4.956   6.603
 4942SOL     OW15157   3.500   4.823   6.665
 4942SOL    HW115158   3.505   4.904   6.724
 4942SOL    HW215159   3.414   4.825   6.614
 4943SOL     OW15160   2.777   3.813   6.988
 4943SOL    HW115161   2.802   3.793   6.893
 4943SOL    HW215162   2.849   3.869   7.030
 4944SOL     OW15163   2.842   4.840   7.305
 4944SOL    HW115164   2.743   4.846   7.315
 4944SOL    HW215165   2.865   4.760   7.249
 4945SOL     OW15166   2.567   4.774   5.954
 4945SOL    HW115167   2.553   4.781   6.053
 4945SOL    HW215168   2.651   4.723   5.936
 4946SOL     OW15169   2.272   4.537   6.837
 4946SOL    HW115170   2.358   4.549   6.887
 4946SOL    HW215171   2.230   4.450   6.864
 4947SOL     OW15172   3.136   4.110   6.848
 4947SOL    HW115173   3.157   4.184   6.912
 4947SOL    HW215174   3.047   4.127   6.805
 4948SOL     OW15175   2.229   4.824   6.087
 4948SOL    HW115176   2.222   4.907   6.031
 4948SOL    HW215177   2.233   4.744   6.027
 4949SOL     OW15178   2.428   4.261   6.451
 4949SOL    HW115179   2.440   4.327   6.377
 4949SOL    HW215180   2.474   4.295   6.534
 4950SOL     OW15181   3.114   5.072   5.974
 4950SOL    HW115182   3.164   5.149   6.014
 4950SOL    HW215183   3.019   5.074   6.006
 4951SOL     OW15184   3.134   5.169   6.728
 4951SOL    HW115185   3.181   5.182   6.815
 4951SOL    HW215186   3.068   5.095   6.737
 4952SOL     OW15187   3.444   4.363   6.058
 4952SOL    HW115188   3.413   4.424   6.131
 4952SOL    HW215189   3.494   4.415   5.989
 4953SOL     OW15190   2.216   5.234   6.915
 4953SOL    HW115191   2.195   5.190   6.828
 4953SOL    HW215192   2.313   5.260   6.918
 4954SOL     OW15193   2.264   4.475   7.184
 4954SOL    HW115194   2.332   4.530   7.137
 4954SOL    HW215195   2.304   4.387   7.211
 4955SOL     OW15196   3.449   4.503   7.256
 4955SOL    HW115197   3.357   4.541   7.251
 4955SOL    HW215198   3.509   4.550   7.191
 4956SOL     OW15199   2.875   3.829   7.356
 4956SOL    HW115200   2.881   3.914   7.304
 4956SOL    HW215201   2.907   3.753   7.299
 4957SOL     OW15202   2.366   3.774   7.326
 4957SOL    HW115203   2.324   3.717   7.256
 4957SOL    HW215204   2.300   3.843   7.358
 4958SOL     OW15205   2.435   4.594   6.615
 4958SOL    HW115206   2.479   4.683   6.606
 4958SOL    HW215207   2.372   4.594   6.692
 4959SOL     OW15208   3.222   4.586   6.631
 4959SOL    HW115209   3.147   4.586   6.565
 4959SOL    HW215210   3.259   4.494   6.640
 4960SOL     OW15211   3.071   4.249   5.861
 4960SOL    HW115212   3.084   4.165   5.915
 4960SOL    HW215213   3.042   4.323   5.921
 4961SOL     OW15214   2.169   3.937   6.817
 4961SOL    HW115215   2.146   3.974   6.907
 4961SOL    HW215216   2.139   3.842   6.811
 4962SOL     OW15217   1.899   5.034   6.868
 4962SOL    HW115218   1.952   4.985   6.936
 4962SOL    HW215219   1.921   5.132   6.873
 4963SOL     OW15220   2.594   4.358   6.650
 4963SOL    HW115221   2.653   4.332   6.574
 4963SOL    HW215222   2.566   4.454   6.639
 4964SOL     OW15223   3.590   4.659   7.440
 4964SOL    HW115224   3.544   4.652   7.351
 4964SOL    HW215225   3.528   4.703   7.506
 4965SOL     OW15226   2.169   3.787   6.204
 4965SOL    HW115227   2.158   3.881   6.237
 4965SOL    HW215228   2.164   3.724   6.281
 4966SOL     OW15229   3.484   4.091   5.960
 4966SOL    HW115230   3.486   4.015   6.024
 4966SOL    HW215231   3.436   4.168   6.000
 4967SOL     OW15232   2.885   4.490   6.552
 4967SOL    HW115233   2.900   4.511   6.648
 4967SOL    HW215234   2.855   4.395   6.543
 4968SOL     OW15235   3.721   5.242   7.191
 4968SOL    HW115236   3.735   5.269   7.096
 4968SOL    HW215237   3.804   5.264   7.244
 4969SOL     OW15238   2.212   4.622   7.390
 4969SOL    HW115239   2.288   4.666   7.438
 4969SOL    HW215240   2.247   4.575   7.308
 4970SOL     OW15241   3.402   3.998   5.711
 4970SOL    HW115242   3.341   3.923   5.734
 4970SOL    HW215243   3.424   4.050   5.794
 4971SOL     OW15244   3.165   4.562   5.628
 4971SOL    HW115245   3.199   4.469   5.643
 4971SOL    HW215246   3.183   4.589   5.533
 4972SOL     OW15247   2.930   5.057   6.435
 4972SOL    HW115248   2.937   4.973   6.380
 4972SOL    HW215249   2.992   5.126   6.399
 4973SOL     OW15250   2.181   4.534   6.535
 4973SOL    HW115251   2.274   4.570   6.540
 4973SOL    HW215252   2.175   4.449   6.587
 4974SOL     OW15253   2.201   4.233   6.592
 4974SOL    HW115254   2.149   4.150   6.575
 4974SOL    HW215255   2.278   4.238   6.528
 4975SOL     OW15256   3.000   4.104   7.264
 4975SOL    HW115257   2.955   4.167   7.328
 4975SOL    HW215258   3.093   4.135   7.247
 4976SOL     OW15259   3.022   3.931   7.063
 4976SOL    HW115260   3.022   3.995   7.140
 4976SOL    HW215261   3.050   3.979   6.980
 4977SOL     OW15262   1.870   5.050   5.786
 4977SOL    HW115263   1.777   5.071   5.755
 4977SOL    HW215264   1.880   4.951   5.799
 4978SOL     OW15265   2.864   4.520   6.824
 4978SOL    HW115266   2.905   4.488   6.910
 4978SOL    HW215267   2.768   4.493   6.821
 4979SOL     OW15268   1.902   4.268   6.700
 4979SOL    HW115269   1.987   4.235   6.659
 4979SOL    HW215270   1.915   4.283   6.798
 4980SOL     OW15271   2.051   4.244   7.308
 4980SOL    HW115272   2.110   4.204   7.238
 4980SOL    HW215273   1.993   4.315   7.267
 4981SOL     OW15274   3.231   4.674   7.246
 4981SOL    HW115275   3.270   4.763   7.266
 4981SOL    HW215276   3.241   4.654   7.149
 4982SOL     OW15277   2.677   4.296   5.911
 4982SOL    HW115278   2.684   4.207   5.865
 4982SOL    HW215279   2.583   4.330   5.903
 4983SOL     OW15280   3.519   4.328   6.792
 4983SOL    HW115281   3.481   4.259   6.854
 4983SOL    HW215282   3.601   4.292   6.748
 4984SOL     OW15283   2.114   5.288   7.330
 4984SOL    HW115284   2.084   5.345   7.406
 4984SOL    HW215285   2.107   5.191   7.356
 4985SOL     OW15286   2.533   4.188   6.855
 4985SOL    HW115287   2.499   4.099   6.825
 4985SOL    HW215288   2.559   4.242   6.775
 4986SOL     OW15289   2.335   4.224   5.777
 4986SOL    HW115290   2.396   4.304   5.781
 4986SOL    HW215291   2.240   4.255   5.784
 4987SOL     OW15292   2.021   4.861   7.052
 4987SOL    HW115293   2.043   4.800   7.128
 4987SOL    HW215294   2.031   4.812   6.966
 4988SOL     OW15295   3.209   4.783   6.820
 4988SOL    HW115296   3.233   4.720   6.746
 4988SOL    HW215297   3.119   4.823   6.802
 4989SOL     OW15298   3.164   4.579   5.895
 4989SOL    HW115299   3.078   4.548   5.937
 4989SOL    HW215300   3.160   4.565   5.796
 4990SOL     OW15301   1.945   4.982   6.608
 4990SOL    HW115302   1.940   4.981   6.708
 4990SOL    HW215303   1.862   4.941   6.570
 4991SOL     OW15304   2.550   5.386   7.302
 4991SOL    HW115305   2.494   5.467   7.311
 4991SOL    HW215306   2.602   5.390   7.216
 4992SOL     OW15307   3.588   3.859   6.109
 4992SOL    HW115308   3.661   3.842   6.042
 4992SOL    HW215309   3.557   3.772   6.147
 4993SOL     OW15310   3.142   4.651   6.258
 4993SOL    HW115311   3.202   4.570   6.260
 4993SOL    HW215312   3.182   4.720   6.198
 4994SOL     OW15313   2.692   4.997   7.008
 4994SOL    HW115314   2.687   5.030   7.103
 4994SOL    HW215315   2.606   5.016   6.962
 4995SOL     OW15316   3.703   3.899   6.549
 4995SOL    HW115317   3.742   3.814   6.513
 4995SOL    HW215318   3.605   3.901   6.530
 4996SOL     OW15319   2.125   4.050   6.306
 4996SOL    HW115320   2.046   4.101   6.272
 4996SOL    HW215321   2.116   4.035   6.404
 4997SOL     OW15322   2.684   4.726   6.958
 4997SOL    HW115323   2.724   4.725   6.866
 4997SOL    HW215324   2.694   4.818   6.998
 4998SOL     OW15325   2.778   4.634   5.877
 4998SOL    HW115326   2.841   4.672   5.809
 4998SOL    HW215327   2.818   4.551   5.916
 4999SOL     OW15328   2.234   5.012   7.076
 4999SOL    HW115329   2.221   5.105   7.042
 4999SOL    HW215330   2.150   4.960   7.063
 5000SOL     OW15331   3.476   5.016   6.875
 5000SOL    HW115332   3.536   5.019   6.955
 5000SOL    HW215333   3.401   5.080   6.888
 5001SOL     OW15334   2.901   4.822   6.282
 5001SOL    HW115335   2.831   4.775   6.336
 5001SOL    HW215336   2.960   4.754   6.239
 5002SOL     OW15337   2.876   3.960   6.557
 5002SOL    HW115338   2.868   3.924   6.464
 5002SOL    HW215339   2.874   3.884   6.622
 5003SOL     OW15340   3.571   4.109   6.967
 5003SOL    HW115341   3.644   4.178   6.971
 5003SOL    HW215342   3.599   4.034   6.908
 5004SOL     OW15343   2.117   5.072   5.876
 5004SOL    HW115344   2.021   5.073   5.849
 5004SOL    HW215345   2.129   5.125   5.960
 5005SOL     OW15346   1.967   4.737   7.312
 5005SOL    HW115347   1.890   4.704   7.366
 5005SOL    HW215348   2.052   4.707   7.354
 5006SOL     OW15349   2.534   3.927   7.075
 5006SOL    HW115350   2.624   3.911   7.035
 5006SOL    HW215351   2.542   3.932   7.174
 5007SOL     OW15352   1.937   4.069   5.619
 5007SOL    HW115353   1.845   4.041   5.590
 5007SOL    HW215354   1.968   4.146   5.563
 5008SOL     OW15355   3.302   4.580   6.984
 5008SOL    HW115356   3.245   4.632   6.921
 5008SOL    HW215357   3.398   4.592   6.960
 5009SOL     OW15358   1.934   3.890   5.904
 5009SOL    HW115359   1.917   3.973   5.850
 5009SOL    HW215360   2.024   3.853   5.882
 5010SOL     OW15361   3.045   5.059   5.705
 5010SOL    HW115362   2.946   5.048   5.707
 5010SOL    HW215363   3.079   5.074   5.798
 5011SOL     OW15364   2.475   4.566   7.017
 5011SOL    HW115365   2.531   4.647   7.000
 5011SOL    HW215366   2.534   4.486   7.020
 5012SOL     OW15367   2.578   4.289   7.294
 5012SOL    HW115368   2.597   4.354   7.368
 5012SOL    HW215369   2.638   4.209   7.303
 5013SOL     OW15370   3.312   4.944   7.219
 5013SOL    HW115371   3.303   4.934   7.318
 5013SOL    HW215372   3.408   4.937   7.193
 5014SOL     OW15373   3.536   4.607   6.840
 5014SOL    HW115374   3.509   4.518   6.803
 5014SOL    HW215375   3.537   4.675   6.767
 5015SOL     OW15376   3.087   4.049   6.035
 5015SOL    HW115377   3.152   3.975   6.024
 5015SOL    HW215378   3.107   4.099   6.119
 5016SOL     OW15379   2.456   4.469   6.238
 5016SOL    HW115380   2.506   4.554   6.219
 5016SOL    HW215381   2.368   4.471   6.190
 5017SOL     OW15382   3.639   4.066   7.228
 5017SOL    HW115383   3.622   4.097   7.134
 5017SOL    HW215384   3.555   4.029   7.266
 5018SOL     OW15385   3.592   4.658   7.103
 5018SOL    HW115386   3.630   4.749   7.118
 5018SOL    HW215387   3.584   4.641   7.004
 5019SOL     OW15388   2.721   5.098   5.602
 5019SOL    HW115389   2.675   5.113   5.690
 5019SOL    HW215390   2.765   5.183   5.572
 5020SOL     OW15391   2.721   4.680   6.447
 5020SOL    HW115392   2.775   4.611   6.495
 5020SOL    HW215393   2.689   4.749   6.513
 5021SOL     OW15394   2.945   4.708   5.673
 5021SOL    HW115395   2.922   4.761   5.591
 5021SOL    HW215396   3.026   4.652   5.654
 5022SOL     OW15397   2.083   5.038   7.430
 5022SOL    HW115398   2.018   4.965   7.409
 5022SOL    HW215399   2.087   5.052   7.528
 5023SOL     OW15400   1.941   4.964   6.239
 5023SOL    HW115401   1.940   4.917   6.327
 5023SOL    HW215402   2.023   4.936   6.188
 5024SOL     OW15403   2.534   5.115   7.210
 5024SOL    HW115404   2.456   5.065   7.248
 5024SOL    HW215405   2.531   5.210   7.241
 5025SOL     OW15406   3.686   3.916   6.813
 5025SOL    HW115407   3.682   3.826   6.857
 5025SOL    HW215408   3.689   3.905   6.714
 5026SOL     OW15409   2.290   4.148   6.106
 5026SOL    HW115410   2.320   4.076   6.044
 5026SOL    HW215411   2.251   4.108   6.189
 5027SOL     OW15412   3.567   5.211   6.690
 5027SOL    HW115413   3.474   5.186   6.663
 5027SOL    HW215414   3.593   5.161   6.772
 5028SOL     OW15415   2.179   4.271   6.866
 5028SOL    HW115416   2.217   4.212   6.938
 5028SOL    HW215417   2.219   4.245   6.778
 5029SOL     OW15418   3.286   3.938   6.698
 5029SOL    HW115419   3.338   3.873   6.753
 5029SOL    HW215420   3.237   4.001   6.759
 5030SOL     OW15421   2.863   3.758   6.740
 5030SOL    HW115422   2.800   3.686   6.709
 5030SOL    HW215423   2.956   3.722   6.740
 5031SOL     OW15424   2.632   5.054   5.887
 5031SOL    HW115425   2.586   4.967   5.904
 5031SOL    HW215426   2.723   5.051   5.928
 5032SOL     OW15427   2.480   5.291   6.870
 5032SOL    HW115428   2.475   5.373   6.927
 5032SOL    HW215429   2.569   5.288   6.825
 5033SOL     OW15430   3.214   3.776   5.754
 5033SOL    HW115431   3.249   3.735   5.670
 5033SOL    HW215432   3.124   3.738   5.774
 5034SOL     OW15433   3.162   4.177   6.277
 5034SOL    HW115434   3.103   4.257   6.281
 5034SOL    HW215435   3.177   4.142   6.370
 5035SOL     OW15436   3.455   3.945   6.468
 5035SOL    HW115437   3.371   3.944   6.522
 5035SOL    HW215438   3.457   4.028   6.412
 5036SOL     OW15439   1.901   4.801   5.886
 5036SOL    HW115440   2.000   4.790   5.877
 5036SOL    HW215441   1.861   4.715   5.918
 5037SOL     OW15442   2.092   4.352   7.561
 5037SOL    HW115443   1.999   4.350   7.598
 5037SOL    HW215444   2.093   4.313   7.469
 5038SOL     OW15445   3.617   4.331   7.679
 5038SOL    HW115446   3.605   4.318   7.580
 5038SOL    HW215447   3.587   4.250   7.728
 5039SOL     OW15448   2.093   5.437   7.931
 5039SOL    HW115449   2.127   5.514   7.985
 5039SOL    HW215450   2.137   5.437   7.841
 5040SOL     OW15451   2.092   5.158   7.986
 5040SOL    HW115452   2.066   5.254   7.986
 5040SOL    HW215453   2.021   5.104   8.031
 5041SOL     OW15454   2.468   4.688   7.571
 5041SOL    HW115455   2.475   4.772   7.517
 5041SOL    HW215456   2.514   4.701   7.659
 5042SOL     OW15457   1.889   5.320   7.565
 5042SOL    HW115458   1.870   5.224   7.586
 5042SOL    HW215459   1.856   5.378   7.640
 5043SOL     OW15460   3.551   4.646   8.060
 5043SOL    HW115461   3.646   4.617   8.068
 5043SOL    HW215462   3.543   4.711   7.985
 5044SOL     OW15463   3.503   4.832   7.880
 5044SOL    HW115464   3.589   4.834   7.828
 5044SOL    HW215465   3.517   4.879   7.968
 5045SOL     OW15466   2.671   3.728   7.950
 5045SOL    HW115467   2.711   3.819   7.941
 5045SOL    HW215468   2.571   3.736   7.956
 5046SOL     OW15469   3.387   4.723   7.638
 5046SOL    HW115470   3.324   4.647   7.651
 5046SOL    HW215471   3.435   4.741   7.724
 5047SOL     OW15472   2.460   4.453   7.718
 5047SOL    HW115473   2.484   4.522   7.650
 5047SOL    HW215474   2.382   4.486   7.772
 5048SOL     OW15475   1.938   4.535   8.237
 5048SOL    HW115476   2.037   4.523   8.246
 5048SOL    HW215477   1.914   4.630   8.258
 5049SOL     OW15478   2.727   4.072   7.643
 5049SOL    HW115479   2.786   4.135   7.594
 5049SOL    HW215480   2.746   3.978   7.614
 5050SOL     OW15481   2.183   4.667   7.690
 5050SOL    HW115482   2.265   4.706   7.648
 5050SOL    HW215483   2.156   4.585   7.641
 5051SOL     OW15484   2.973   5.500   7.685
 5051SOL    HW115485   2.913   5.438   7.735
 5051SOL    HW215486   3.004   5.456   7.600
 5052SOL     OW15487   3.494   5.101   7.529
 5052SOL    HW115488   3.462   5.195   7.519
 5052SOL    HW215489   3.418   5.038   7.517
 5053SOL     OW15490   3.262   3.831   7.874
 5053SOL    HW115491   3.238   3.794   7.784
 5053SOL    HW215492   3.361   3.847   7.878
 5054SOL     OW15493   2.244   4.424   7.928
 5054SOL    HW115494   2.289   4.334   7.925
 5054SOL    HW215495   2.150   4.413   7.961
 5055SOL     OW15496   2.476   3.846   7.565
 5055SOL    HW115497   2.574   3.824   7.572
 5055SOL    HW215498   2.445   3.829   7.472
 5056SOL     OW15499   2.401   3.788   7.960
 5056SOL    HW115500   2.320   3.789   8.018
 5056SOL    HW215501   2.404   3.871   7.905
 5057SOL     OW15502   3.296   4.912   7.489
 5057SOL    HW115503   3.328   4.836   7.546
 5057SOL    HW215504   3.204   4.939   7.519
 5058SOL     OW15505   2.159   3.759   7.619
 5058SOL    HW115506   2.208   3.843   7.598
 5058SOL    HW215507   2.221   3.694   7.664
 5059SOL     OW15508   2.797   3.960   7.928
 5059SOL    HW115509   2.749   4.001   7.850
 5059SOL    HW215510   2.896   3.958   7.909
 5060SOL     OW15511   2.321   4.876   8.189
 5060SOL    HW115512   2.250   4.849   8.254
 5060SOL    HW215513   2.295   4.848   8.096
 5061SOL     OW15514   2.894   4.273   7.464
 5061SOL    HW115515   2.853   4.355   7.425
 5061SOL    HW215516   2.958   4.299   7.537
 5062SOL     OW15517   3.719   4.557   7.825
 5062SOL    HW115518   3.761   4.493   7.889
 5062SOL    HW215519   3.681   4.506   7.747
 5063SOL     OW15520   2.350   5.109   7.622
 5063SOL    HW115521   2.263   5.094   7.669
 5063SOL    HW215522   2.333   5.135   7.527
 5064SOL     OW15523   3.252   4.299   7.526
 5064SOL    HW115524   3.198   4.278   7.607
 5064SOL    HW215525   3.343   4.258   7.535
 5065SOL     OW15526   2.389   3.980   7.776
 5065SOL    HW115527   2.416   3.921   7.701
 5065SOL    HW215528   2.389   4.075   7.745
 5066SOL     OW15529   2.567   4.774   7.816
 5066SOL    HW115530   2.553   4.781   7.915
 5066SOL    HW215531   2.651   4.723   7.798
 5067SOL     OW15532   2.229   4.824   7.949
 5067SOL    HW115533   2.222   4.907   7.893
 5067SOL    HW215534   2.233   4.744   7.889
 5068SOL     OW15535   3.114   5.072   7.836
 5068SOL    HW115536   3.164   5.149   7.876
 5068SOL    HW215537   3.019   5.074   7.868
 5069SOL     OW15538   3.444   4.363   7.920
 5069SOL    HW115539   3.413   4.424   7.993
 5069SOL    HW215540   3.494   4.415   7.851
 5070SOL     OW15541   3.071   4.249   7.723
 5070SOL    HW115542   3.084   4.165   7.777
 5070SOL    HW215543   3.042   4.323   7.783
 5071SOL     OW15544   3.484   4.091   7.822
 5071SOL    HW115545   3.486   4.015   7.886
 5071SOL    HW215546   3.436   4.168   7.862
 5072SOL     OW15547   3.402   3.998   7.573
 5072SOL    HW115548   3.341   3.923   7.596
 5072SOL    HW215549   3.424   4.050   7.656
 5073SOL     OW15550   3.165   4.562   7.490
 5073SOL    HW115551   3.199   4.469   7.505
 5073SOL    HW215552   3.183   4.589   7.395
 5074SOL     OW15553   1.870   5.050   7.648
 5074SOL    HW115554   1.777   5.071   7.617
 5074SOL    HW215555   1.880   4.951   7.661
 5075SOL     OW15556   2.677   4.296   7.773
 5075SOL    HW115557   2.684   4.207   7.727
 5075SOL    HW215558   2.583   4.330   7.765
 5076SOL     OW15559   2.335   4.224   7.639
 5076SOL    HW115560   2.396   4.304   7.643
 5076SOL    HW215561   2.240   4.255   7.646
 5077SOL     OW15562   3.164   4.579   7.757
 5077SOL    HW115563   3.078   4.548   7.799
 5077SOL    HW215564   3.160   4.565   7.658
 5078SOL     OW15565   3.588   3.859   7.971
 5078SOL    HW115566   3.661   3.842   7.904
 5078SOL    HW215567   3.557   3.772   8.009
 5079SOL     OW15568   2.778   4.634   7.739
 5079SOL    HW115569   2.841   4.672   7.671
 5079SOL    HW215570   2.818   4.551   7.778
 5080SOL     OW15571   2.117   5.072   7.738
 5080SOL    HW115572   2.021   5.073   7.711
 5080SOL    HW215573   2.129   5.125   7.822
 5081SOL     OW15574   1.937   4.069   7.481
 5081SOL    HW115575   1.845   4.041   7.452
 5081SOL    HW215576   1.968   4.146   7.425
 5082SOL     OW15577   1.934   3.890   7.766
 5082SOL    HW115578   1.917   3.973   7.712
 5082SOL    HW215579   2.024   3.853   7.744
 5083SOL     OW15580   3.045   5.059   7.567
 5083SOL    HW115581   2.946   5.048   7.569
 5083SOL    HW215582   3.079   5.074   7.660
 5084SOL     OW15583   3.087   4.049   7.897
 5084SOL    HW115584   3.152   3.975   7.886
 5084SOL    HW215585   3.107   4.099   7.981
 5085SOL     OW15586   2.456   4.469   8.100
 5085SOL    HW115587   2.506   4.554   8.081
 5085SOL    HW215588   2.368   4.471   8.052
 5086SOL     OW15589   2.721   5.098   7.464
 5086SOL    HW115590   2.675   5.113   7.552
 5086SOL    HW215591   2.765   5.183   7.434
 5087SOL     OW15592   2.945   4.708   7.535
 5087SOL    HW115593   2.922   4.761   7.453
 5087SOL    HW215594   3.026   4.652   7.516
 5088SOL     OW15595   2.290   4.148   7.968
 5088SOL    HW115596   2.320   4.076   7.906
 5088SOL    HW215597   2.251   4.108   8.051
 5089SOL     OW15598   2.632   5.054   7.749
 5089SOL    HW115599   2.586   4.967   7.766
 5089SOL    HW215600   2.723   5.051   7.790
 5090SOL     OW15601   3.214   3.776   7.616
 5090SOL    HW115602   3.249   3.735   7.532
 5090SOL    HW215603   3.124   3.738   7.636
 5091SOL     OW15604   1.901   4.801   7.748
 5091SOL    HW115605   2.000   4.790   7.739
 5091SOL    HW215606   1.861   4.715   7.780
 5092SOL     OW15607   3.954   0.628   0.113
 5092SOL    HW115608   3.861   0.626   0.150
 5092SOL    HW215609   3.955   0.589   0.021
 5093SOL     OW15610   3.949   0.275   0.996
 5093SOL    HW115611   3.984   0.258   1.088
 5093SOL    HW215612   3.861   0.230   0.984
 5094SOL     OW15613   3.743   0.368   0.647
 5094SOL    HW115614   3.661   0.411   0.686
 5094SOL    HW215615   3.715   0.295   0.584
 5095SOL     OW15616   4.293   1.275   1.165
 5095SOL    HW115617   4.200   1.268   1.128
 5095SOL    HW215618   4.304   1.364   1.209
 5096SOL     OW15619   5.279   1.511   0.703
 5096SOL    HW115620   5.222   1.495   0.784
 5096SOL    HW215621   5.220   1.521   0.623
 5097SOL     OW15622   4.859   0.703   0.717
 5097SOL    HW115623   4.916   0.781   0.692
 5097SOL    HW215624   4.799   0.729   0.793
 5098SOL     OW15625   4.492   1.144   1.023
 5098SOL    HW115626   4.414   1.161   1.083
 5098SOL    HW215627   4.526   1.231   0.987
 5099SOL     OW15628   4.574   0.798   1.823
 5099SOL    HW115629   4.570   0.874   1.888
 5099SOL    HW215630   4.596   0.834   1.732
 5100SOL     OW15631   4.409   1.012   0.665
 5100SOL    HW115632   4.478   0.996   0.735
 5100SOL    HW215633   4.336   1.069   0.703
 5101SOL     OW15634   4.410   1.161   1.803
 5101SOL    HW115635   4.470   1.240   1.817
 5101SOL    HW215636   4.324   1.192   1.762
 5102SOL     OW15637   4.059   1.435   1.061
 5102SOL    HW115638   3.981   1.404   1.008
 5102SOL    HW215639   4.117   1.493   1.004
 5103SOL     OW15640   5.184   1.505   1.339
 5103SOL    HW115641   5.208   1.599   1.365
 5103SOL    HW215642   5.168   1.451   1.421
 5104SOL     OW15643   4.162   0.392   1.499
 5104SOL    HW115644   4.244   0.336   1.508
 5104SOL    HW215645   4.081   0.334   1.503
 5105SOL     OW15646   3.955   1.713   0.483
 5105SOL    HW115647   3.989   1.790   0.537
 5105SOL    HW215648   3.999   1.713   0.393
 5106SOL     OW15649   4.851   1.341   1.690
 5106SOL    HW115650   4.898   1.341   1.778
 5106SOL    HW215651   4.803   1.254   1.679
 5107SOL     OW15652   3.954   1.434   0.538
 5107SOL    HW115653   3.928   1.530   0.538
 5107SOL    HW215654   3.883   1.380   0.583
 5108SOL     OW15655   3.964   1.091   0.886
 5108SOL    HW115656   3.978   1.007   0.938
 5108SOL    HW215657   3.909   1.155   0.941
 5109SOL     OW15658   4.344   1.786   1.439
 5109SOL    HW115659   4.252   1.769   1.474
 5109SOL    HW215660   4.372   1.878   1.465
 5110SOL     OW15661   4.330   0.964   0.123
 5110SOL    HW115662   4.337   1.048   0.069
 5110SOL    HW215663   4.376   0.977   0.211
 5111SOL     OW15664   5.318   0.114   1.480
 5111SOL    HW115665   5.300   0.181   1.408
 5111SOL    HW215666   5.315   0.160   1.569
 5112SOL     OW15667   3.846   0.643   0.563
 5112SOL    HW115668   3.801   0.555   0.580
 5112SOL    HW215669   3.845   0.697   0.647
 5113SOL     OW15670   3.751   1.596   0.117
 5113SOL    HW115671   3.732   1.500   0.138
 5113SOL    HW215672   3.718   1.654   0.192
 5114SOL     OW15673   5.413   0.922   0.612
 5114SOL    HW115674   5.508   0.893   0.620
 5114SOL    HW215675   5.405   0.987   0.537
 5115SOL     OW15676   3.837   0.737   1.597
 5115SOL    HW115677   3.925   0.724   1.642
 5115SOL    HW215678   3.824   0.834   1.575
 5116SOL     OW15679   4.337   1.365   0.726
 5116SOL    HW115680   4.288   1.278   0.735
 5116SOL    HW215681   4.314   1.408   0.639
 5117SOL     OW15682   5.017   1.228   1.423
 5117SOL    HW115683   5.054   1.155   1.365
 5117SOL    HW215684   5.069   1.233   1.508
 5118SOL     OW15685   4.533   0.004   0.502
 5118SOL    HW115686   4.573   0.095   0.493
 5118SOL    HW215687   4.433   0.012   0.508
 5119SOL     OW15688   3.921   0.976   1.264
 5119SOL    HW115689   4.010   0.931   1.250
 5119SOL    HW215690   3.848   0.911   1.245
 5120SOL     OW15691   4.911   1.792   1.616
 5120SOL    HW115692   4.935   1.852   1.540
 5120SOL    HW215693   4.918   1.697   1.586
 5121SOL     OW15694   4.041   0.251   1.801
 5121SOL    HW115695   4.112   0.322   1.807
 5121SOL    HW215696   3.953   0.290   1.829
 5122SOL     OW15697   5.190   1.417   0.953
 5122SOL    HW115698   5.131   1.423   1.033
 5122SOL    HW215699   5.175   1.329   0.907
 5123SOL     OW15700   4.322   0.729   0.270
 5123SOL    HW115701   4.346   0.798   0.202
 5123SOL    HW215702   4.244   0.762   0.324
 5124SOL     OW15703   5.005   0.345   0.944
 5124SOL    HW115704   4.919   0.295   0.931
 5124SOL    HW215705   5.067   0.291   1.000
 5125SOL     OW15706   4.531   0.605   1.465
 5125SOL    HW115707   4.484   0.602   1.554
 5125SOL    HW215708   4.480   0.550   1.399
 5126SOL     OW15709   5.118   0.469   1.674
 5126SOL    HW115710   5.098   0.512   1.762
 5126SOL    HW215711   5.196   0.407   1.683
 5127SOL     OW15712   4.697   0.890   1.572
 5127SOL    HW115713   4.743   0.806   1.543
 5127SOL    HW215714   4.641   0.924   1.497
 5128SOL     OW15715   4.715   0.410   1.242
 5128SOL    HW115716   4.638   0.444   1.296
 5128SOL    HW215717   4.681   0.359   1.163
 5129SOL     OW15718   4.765   0.701   0.429
 5129SOL    HW115719   4.791   0.697   0.525
 5129SOL    HW215720   4.680   0.650   0.415
 5130SOL     OW15721   3.800   0.811   0.789
 5130SOL    HW115722   3.899   0.799   0.798
 5130SOL    HW215723   3.776   0.906   0.810
 5131SOL     OW15724   3.854   1.821   1.571
 5131SOL    HW115725   3.844   1.806   1.670
 5131SOL    HW215726   3.768   1.857   1.535
 5132SOL     OW15727   4.589   0.348   0.195
 5132SOL    HW115728   4.648   0.411   0.146
 5132SOL    HW215729   4.608   0.254   0.166
 5133SOL     OW15730   5.086   1.144   0.545
 5133SOL    HW115731   5.169   1.115   0.497
 5133SOL    HW215732   5.037   1.211   0.489
 5134SOL     OW15733   4.274   0.196   0.885
 5134SOL    HW115734   4.269   0.191   0.985
 5134SOL    HW215735   4.276   0.292   0.856
 5135SOL     OW15736   4.732   1.456   0.477
 5135SOL    HW115737   4.686   1.528   0.425
 5135SOL    HW215738   4.728   1.476   0.575
 5136SOL     OW15739   4.075   1.801   0.853
 5136SOL    HW115740   4.125   1.715   0.859
 5136SOL    HW215741   4.140   1.878   0.850
 5137SOL     OW15742   4.951   1.550   1.506
 5137SOL    HW115743   4.957   1.473   1.570
 5137SOL    HW215744   4.899   1.524   1.426
 5138SOL     OW15745   4.045   0.943   0.242
 5138SOL    HW115746   4.127   0.982   0.200
 5138SOL    HW215747   4.018   0.861   0.193
 5139SOL     OW15748   4.185   1.266   1.727
 5139SOL    HW115749   4.135   1.267   1.641
 5139SOL    HW215750   4.122   1.248   1.803
 5140SOL     OW15751   4.835   1.776   0.237
 5140SOL    HW115752   4.775   1.714   0.287
 5140SOL    HW215753   4.866   1.732   0.152
 5141SOL     OW15754   3.926   0.285   1.498
 5141SOL    HW115755   3.846   0.345   1.485
 5141SOL    HW215756   3.916   0.236   1.584
 5142SOL     OW15757   4.188   1.743   0.323
 5142SOL    HW115758   4.221   1.782   0.409
 5142SOL    HW215759   4.264   1.736   0.258
 5143SOL     OW15760   5.124   0.107   0.426
 5143SOL    HW115761   5.100   0.070   0.336
 5143SOL    HW215762   5.223   0.123   0.430
 5144SOL     OW15763   3.973   1.785   1.241
 5144SOL    HW115764   4.030   1.720   1.291
 5144SOL    HW215765   3.957   1.752   1.148
 5145SOL     OW15766   4.664   1.698   0.904
 5145SOL    HW115767   4.744   1.641   0.925
 5145SOL    HW215768   4.615   1.658   0.827
 5146SOL     OW15769   4.106   0.700   0.480
 5146SOL    HW115770   4.151   0.610   0.477
 5146SOL    HW215771   4.012   0.689   0.513
 5147SOL     OW15772   4.338   0.122   0.117
 5147SOL    HW115773   4.436   0.100   0.124
 5147SOL    HW215774   4.307   0.105   0.024
 5148SOL     OW15775   4.505   0.264   1.749
 5148SOL    HW115776   4.572   0.203   1.792
 5148SOL    HW215777   4.432   0.283   1.814
 5149SOL     OW15778   4.612   1.514   1.195
 5149SOL    HW115779   4.589   1.489   1.101
 5149SOL    HW215780   4.673   1.445   1.234
 5150SOL     OW15781   5.075   0.590   1.433
 5150SOL    HW115782   5.103   0.547   1.518
 5150SOL    HW215783   5.100   0.686   1.434
 5151SOL     OW15784   4.527   1.402   0.924
 5151SOL    HW115785   4.617   1.416   0.882
 5151SOL    HW215786   4.456   1.404   0.853
 5152SOL     OW15787   4.646   0.503   0.899
 5152SOL    HW115788   4.621   0.494   0.803
 5152SOL    HW215789   4.694   0.421   0.930
 5153SOL     OW15790   4.263   0.064   0.512
 5153SOL    HW115791   4.182   0.065   0.570
 5153SOL    HW215792   4.266   0.147   0.457
 5154SOL     OW15793   5.158   1.188   0.041
 5154SOL    HW115794   5.190   1.112   0.098
 5154SOL    HW215795   5.066   1.215   0.071
 5155SOL     OW15796   4.021   0.035   0.171
 5155SOL    HW115797   4.070   0.119   0.150
 5155SOL    HW215798   4.083  -0.030   0.216
 5156SOL     OW15799   4.659   0.236   0.480
 5156SOL    HW115800   4.611   0.277   0.402
 5156SOL    HW215801   4.758   0.234   0.461
 5157SOL     OW15802   4.800   0.683   1.464
 5157SOL    HW115803   4.720   0.622   1.467
 5157SOL    HW215804   4.881   0.630   1.440
 5158SOL     OW15805   4.951   1.570   0.793
 5158SOL    HW115806   4.972   1.644   0.728
 5158SOL    HW215807   5.019   1.570   0.866
 5159SOL     OW15808   4.183   1.152   0.741
 5159SOL    HW115809   4.112   1.125   0.806
 5159SOL    HW215810   4.157   1.124   0.648
 5160SOL     OW15811   4.995   1.797   0.591
 5160SOL    HW115812   5.039   1.861   0.527
 5160SOL    HW215813   4.945   1.849   0.661
 5161SOL     OW15814   4.756   0.549   0.016
 5161SOL    HW115815   4.715   0.631  -0.023
 5161SOL    HW215816   4.820   0.575   0.089
 5162SOL     OW15817   3.802   0.556   1.386
 5162SOL    HW115818   3.894   0.555   1.345
 5162SOL    HW215819   3.796   0.630   1.453
 5163SOL     OW15820   4.285   0.222   1.147
 5163SOL    HW115821   4.323   0.138   1.184
 5163SOL    HW215822   4.197   0.241   1.191
 5164SOL     OW15823   4.590   0.454   0.642
 5164SOL    HW115824   4.558   0.526   0.580
 5164SOL    HW215825   4.614   0.373   0.589
 5165SOL     OW15826   4.741   0.039   0.753
 5165SOL    HW115827   4.669   0.044   0.684
 5165SOL    HW215828   4.717  -0.030   0.822
 5166SOL     OW15829   5.153   1.173   0.867
 5166SOL    HW115830   5.098   1.089   0.860
 5166SOL    HW215831   5.179   1.202   0.775
 5167SOL     OW15832   4.212   1.385   0.174
 5167SOL    HW115833   4.125   1.370   0.221
 5167SOL    HW215834   4.195   1.411   0.079
 5168SOL     OW15835   5.114   0.575   0.078
 5168SOL    HW115836   5.060   0.554   0.159
 5168SOL    HW215837   5.205   0.534   0.087
 5169SOL     OW15838   4.251   0.256   0.328
 5169SOL    HW115839   4.278   0.197   0.253
 5169SOL    HW215840   4.251   0.351   0.297
 5170SOL     OW15841   4.788   1.347   1.340
 5170SOL    HW115842   4.708   1.324   1.395
 5170SOL    HW215843   4.871   1.321   1.389
 5171SOL     OW15844   5.316   1.629   1.625
 5171SOL    HW115845   5.343   1.663   1.535
 5171SOL    HW215846   5.395   1.591   1.671
 5172SOL     OW15847   4.835   1.195   1.100
 5172SOL    HW115848   4.795   1.239   1.181
 5172SOL    HW215849   4.794   1.232   1.017
 5173SOL     OW15850   4.639   0.089   1.402
 5173SOL    HW115851   4.664   0.069   1.307
 5173SOL    HW215852   4.711   0.145   1.444
 5174SOL     OW15853   4.704   1.116   1.719
 5174SOL    HW115854   4.605   1.122   1.729
 5174SOL    HW215855   4.727   1.036   1.663
 5175SOL     OW15856   4.429   1.050   0.368
 5175SOL    HW115857   4.415   1.057   0.467
 5175SOL    HW215858   4.513   0.999   0.350
 5176SOL     OW15859   4.134   0.813   1.251
 5176SOL    HW115860   4.220   0.825   1.301
 5176SOL    HW215861   4.092   0.726   1.278
 5177SOL     OW15862   4.998   0.386   1.262
 5177SOL    HW115863   5.019   0.460   1.326
 5177SOL    HW215864   4.909   0.403   1.219
 5178SOL     OW15865   3.788   1.564   1.331
 5178SOL    HW115866   3.742   1.646   1.297
 5178SOL    HW215867   3.886   1.583   1.340
 5179SOL     OW15868   4.091   1.100   0.501
 5179SOL    HW115869   4.084   1.183   0.445
 5179SOL    HW215870   4.095   1.020   0.441
 5180SOL     OW15871   4.290   0.537   0.865
 5180SOL    HW115872   4.302   0.603   0.791
 5180SOL    HW215873   4.336   0.571   0.948
 5181SOL     OW15874   4.976   1.348   0.388
 5181SOL    HW115875   5.026   1.425   0.428
 5181SOL    HW215876   4.881   1.350   0.420
 5182SOL     OW15877   4.996   1.445   1.142
 5182SOL    HW115878   5.043   1.458   1.229
 5182SOL    HW215879   4.930   1.371   1.151
 5183SOL     OW15880   4.078   1.510   1.329
 5183SOL    HW115881   4.057   1.466   1.242
 5183SOL    HW215882   4.175   1.536   1.332
 5184SOL     OW15883   4.126   0.751   1.598
 5184SOL    HW115884   4.194   0.806   1.551
 5184SOL    HW215885   4.166   0.663   1.625
 5185SOL     OW15886   4.737   0.105   1.770
 5185SOL    HW115887   4.743   0.190   1.718
 5185SOL    HW215888   4.769   0.029   1.713
 5186SOL     OW15889   4.228   0.050   1.740
 5186SOL    HW115890   4.186  -0.007   1.670
 5186SOL    HW215891   4.162   0.119   1.772
 5187SOL     OW15892   4.297   0.870   1.029
 5187SOL    HW115893   4.341   0.959   1.020
 5187SOL    HW215894   4.234   0.870   1.106
 5188SOL     OW15895   5.084   0.862   1.045
 5188SOL    HW115896   5.009   0.862   0.979
 5188SOL    HW215897   5.121   0.770   1.054
 5189SOL     OW15898   4.933   0.525   0.275
 5189SOL    HW115899   4.946   0.441   0.329
 5189SOL    HW215900   4.904   0.599   0.335
 5190SOL     OW15901   4.031   0.213   1.231
 5190SOL    HW115902   4.008   0.250   1.321
 5190SOL    HW215903   4.001   0.118   1.225
 5191SOL     OW15904   3.761   1.310   1.282
 5191SOL    HW115905   3.814   1.261   1.350
 5191SOL    HW215906   3.783   1.408   1.287
 5192SOL     OW15907   4.456   0.634   1.064
 5192SOL    HW115908   4.515   0.608   0.988
 5192SOL    HW215909   4.428   0.730   1.053
 5193SOL     OW15910   4.031   0.063   0.618
 5193SOL    HW115911   4.020   0.157   0.651
 5193SOL    HW215912   4.026   0.000   0.695
 5194SOL     OW15913   5.346   0.367   0.374
 5194SOL    HW115914   5.348   0.291   0.438
 5194SOL    HW215915   5.298   0.444   0.414
 5195SOL     OW15916   4.747   0.766   0.966
 5195SOL    HW115917   4.762   0.787   1.062
 5195SOL    HW215918   4.717   0.671   0.957
 5196SOL     OW15919   4.704   1.573   1.700
 5196SOL    HW115920   4.684   1.617   1.612
 5196SOL    HW215921   4.743   1.482   1.684
 5197SOL     OW15922   4.074   0.898   1.804
 5197SOL    HW115923   4.150   0.942   1.852
 5197SOL    HW215924   4.109   0.851   1.722
 5198SOL     OW15925   5.027   0.838   0.042
 5198SOL    HW115926   5.061   0.745   0.057
 5198SOL    HW215927   5.045   0.865  -0.053
 5199SOL     OW15928   4.792   1.333   0.849
 5199SOL    HW115929   4.799   1.249   0.794
 5199SOL    HW215930   4.854   1.402   0.813
 5200SOL     OW15931   4.043   0.810   0.949
 5200SOL    HW115932   4.136   0.846   0.954
 5200SOL    HW215933   4.037   0.725   1.001
 5201SOL     OW15934   4.063   0.509   1.006
 5201SOL    HW115935   4.011   0.426   0.989
 5201SOL    HW215936   4.140   0.514   0.942
 5202SOL     OW15937   4.862   0.380   1.678
 5202SOL    HW115938   4.817   0.443   1.742
 5202SOL    HW215939   4.955   0.411   1.661
 5203SOL     OW15940   4.884   0.207   1.477
 5203SOL    HW115941   4.884   0.271   1.554
 5203SOL    HW215942   4.912   0.255   1.394
 5204SOL     OW15943   3.732   1.326   0.200
 5204SOL    HW115944   3.639   1.347   0.169
 5204SOL    HW215945   3.742   1.227   0.213
 5205SOL     OW15946   3.812   1.801   0.927
 5205SOL    HW115947   3.770   1.715   0.900
 5205SOL    HW215948   3.906   1.804   0.893
 5206SOL     OW15949   4.228   1.568   0.910
 5206SOL    HW115950   4.294   1.642   0.919
 5206SOL    HW215951   4.272   1.489   0.868
 5207SOL     OW15952   4.726   0.796   1.238
 5207SOL    HW115953   4.767   0.764   1.324
 5207SOL    HW215954   4.630   0.769   1.235
 5208SOL     OW15955   3.764   0.544   1.114
 5208SOL    HW115956   3.849   0.511   1.073
 5208SOL    HW215957   3.777   0.559   1.212
 5209SOL     OW15958   3.913   0.520   1.722
 5209SOL    HW115959   3.972   0.480   1.652
 5209SOL    HW215960   3.855   0.591   1.681
 5210SOL     OW15961   5.093   0.950   1.660
 5210SOL    HW115962   5.132   1.039   1.680
 5210SOL    HW215963   5.103   0.930   1.563
 5211SOL     OW15964   4.539   0.572   0.325
 5211SOL    HW115965   4.546   0.483   0.279
 5211SOL    HW215966   4.445   0.606   0.317
 5212SOL     OW15967   3.976   1.564   1.744
 5212SOL    HW115968   3.946   1.621   1.820
 5212SOL    HW215969   3.969   1.467   1.770
 5213SOL     OW15970   4.395   0.464   1.269
 5213SOL    HW115971   4.361   0.375   1.239
 5213SOL    HW215972   4.421   0.518   1.189
 5214SOL     OW15973   4.654   1.678   1.465
 5214SOL    HW115974   4.630   1.660   1.370
 5214SOL    HW215975   4.684   1.772   1.475
 5215SOL     OW15976   4.197   0.500   0.191
 5215SOL    HW115977   4.258   0.580   0.195
 5215SOL    HW215978   4.102   0.531   0.198
 5216SOL     OW15979   3.883   1.137   1.466
 5216SOL    HW115980   3.905   1.076   1.542
 5216SOL    HW215981   3.893   1.088   1.380
 5217SOL     OW15982   5.071   1.059   1.234
 5217SOL    HW115983   5.095   0.996   1.160
 5217SOL    HW215984   4.981   1.099   1.216
 5218SOL     OW15985   5.026   0.855   0.309
 5218SOL    HW115986   4.940   0.824   0.351
 5218SOL    HW215987   5.022   0.841   0.210
 5219SOL     OW15988   4.976   1.731   1.128
 5219SOL    HW115989   5.060   1.736   1.074
 5219SOL    HW215990   4.953   1.635   1.146
 5220SOL     OW15991   3.807   1.258   1.022
 5220SOL    HW115992   3.802   1.257   1.122
 5220SOL    HW215993   3.724   1.217   0.984
 5221SOL     OW15994   4.412   1.662   1.716
 5221SOL    HW115995   4.356   1.743   1.725
 5221SOL    HW215996   4.464   1.666   1.630
 5222SOL     OW15997   4.627   0.086   0.133
 5222SOL    HW115998   4.678   0.087   0.047
 5222SOL    HW215999   4.683   0.044   0.204
 5223SOL     OW16000   5.112   1.573   0.477
 5223SOL    HW116001   5.179   1.585   0.403
 5223SOL    HW216002   5.072   1.662   0.500
 5224SOL     OW16003   3.854   1.794   1.851
 5224SOL    HW116004   3.813   1.720   1.904
 5224SOL    HW216005   3.918   1.845   1.909
 5225SOL     OW16006   5.004   0.927   0.672
 5225SOL    HW116007   5.064   0.846   0.674
 5225SOL    HW216008   5.044   0.996   0.612
 5226SOL     OW16009   4.554   1.273   1.422
 5226SOL    HW116010   4.549   1.306   1.517
 5226SOL    HW216011   4.468   1.292   1.376
 5227SOL     OW16012   4.396   1.616   0.154
 5227SOL    HW116013   4.405   1.626   0.055
 5227SOL    HW216014   4.356   1.527   0.175
 5228SOL     OW16015   3.987   0.326   0.720
 5228SOL    HW116016   3.908   0.377   0.686
 5228SOL    HW216017   3.978   0.311   0.818
 5229SOL     OW16018   4.918   1.612   0.031
 5229SOL    HW116019   4.924   1.519   0.068
 5229SOL    HW216020   4.859   1.612  -0.049
 5230SOL     OW16021   4.546   1.002   1.372
 5230SOL    HW116022   4.586   1.001   1.280
 5230SOL    HW216023   4.556   1.094   1.412
 5231SOL     OW16024   4.640   0.910   0.291
 5231SOL    HW116025   4.703   0.948   0.223
 5231SOL    HW216026   4.680   0.827   0.330
 5232SOL     OW16027   4.096   1.288   1.490
 5232SOL    HW116028   4.083   1.381   1.456
 5232SOL    HW216029   4.012   1.236   1.477
 5233SOL     OW16030   4.763   1.098   0.696
 5233SOL    HW116031   4.693   1.051   0.750
 5233SOL    HW216032   4.822   1.030   0.653
 5234SOL     OW16033   4.738   0.236   0.971
 5234SOL    HW116034   4.730   0.200   0.878
 5234SOL    HW216035   4.736   0.160   1.036
 5235SOL     OW16036   4.314   1.487   0.491
 5235SOL    HW116037   4.356   1.429   0.421
 5235SOL    HW216038   4.270   1.566   0.447
 5236SOL     OW16039   3.979   1.348   0.290
 5236SOL    HW116040   3.883   1.349   0.263
 5236SOL    HW216041   3.991   1.401   0.374
 5237SOL     OW16042   3.829   1.013   1.726
 5237SOL    HW116043   3.752   0.980   1.780
 5237SOL    HW216044   3.914   0.983   1.768
 5238SOL     OW16045   4.396   0.203   1.489
 5238SOL    HW116046   4.486   0.187   1.449
 5238SOL    HW216047   4.404   0.208   1.588
 5239SOL     OW16048   3.799   0.345   0.033
 5239SOL    HW116049   3.707   0.317   0.004
 5239SOL    HW216050   3.830   0.422  -0.023
 5240SOL     OW16051   5.164   0.856   1.398
 5240SOL    HW116052   5.107   0.908   1.335
 5240SOL    HW216053   5.260   0.868   1.374
 5241SOL     OW16054   3.796   0.166   0.318
 5241SOL    HW116055   3.779   0.249   0.264
 5241SOL    HW216056   3.886   0.129   0.296
 5242SOL     OW16057   4.907   1.335   0.119
 5242SOL    HW116058   4.808   1.324   0.121
 5242SOL    HW216059   4.941   1.350   0.212
 5243SOL     OW16060   4.337   0.842   1.431
 5243SOL    HW116061   4.393   0.923   1.414
 5243SOL    HW216062   4.396   0.762   1.434
 5244SOL     OW16063   4.440   0.565   1.708
 5244SOL    HW116064   4.459   0.630   1.782
 5244SOL    HW216065   4.500   0.485   1.717
 5245SOL     OW16066   5.174   1.220   1.633
 5245SOL    HW116067   5.165   1.210   1.732
 5245SOL    HW216068   5.270   1.213   1.607
 5246SOL     OW16069   4.114   1.741   1.560
 5246SOL    HW116070   4.023   1.782   1.558
 5246SOL    HW216071   4.107   1.647   1.592
 5247SOL     OW16072   4.949   0.325   0.449
 5247SOL    HW116073   5.014   0.251   0.438
 5247SOL    HW216074   4.969   0.375   0.533
 5248SOL     OW16075   4.318   0.745   0.652
 5248SOL    HW116076   4.368   0.830   0.633
 5248SOL    HW216077   4.230   0.747   0.604
 5249SOL     OW16078   4.583   1.374   0.016
 5249SOL    HW116079   4.537   1.389   0.104
 5249SOL    HW216080   4.627   1.459  -0.014
 5250SOL     OW16081   4.385   1.790   0.953
 5250SOL    HW116082   4.339   1.878   0.940
 5250SOL    HW216083   4.484   1.802   0.946
 5251SOL     OW16084   4.583   0.956   0.861
 5251SOL    HW116085   4.637   0.887   0.909
 5251SOL    HW216086   4.551   1.025   0.927
 5252SOL     OW16087   4.807   0.984   0.087
 5252SOL    HW116088   4.784   1.037   0.005
 5252SOL    HW216089   4.888   0.928   0.068
 5253SOL     OW16090   3.945   1.314   1.844
 5253SOL    HW116091   3.880   1.241   1.823
 5253SOL    HW216092   3.949   1.328   1.942
 5254SOL     OW16093   3.803   1.240   0.653
 5254SOL    HW116094   3.802   1.193   0.741
 5254SOL    HW216095   3.885   1.212   0.602
 5255SOL     OW16096   4.396   1.391   1.624
 5255SOL    HW116097   4.318   1.341   1.662
 5255SOL    HW216098   4.393   1.486   1.655
 5256SOL     OW16099   4.152   0.424   0.520
 5256SOL    HW116100   4.182   0.352   0.458
 5256SOL    HW216101   4.113   0.384   0.603
 5257SOL     OW16102   5.429   1.487   1.104
 5257SOL    HW116103   5.336   1.462   1.077
 5257SOL    HW216104   5.455   1.437   1.186
 5258SOL     OW16105   4.041   0.547   1.280
 5258SOL    HW116106   4.079   0.488   1.352
 5258SOL    HW216107   4.081   0.521   1.192
 5259SOL     OW16108   4.536   1.586   0.687
 5259SOL    HW116109   4.568   1.596   0.593
 5259SOL    HW216110   4.457   1.524   0.689
 5260SOL     OW16111   5.148   0.214   1.112
 5260SOL    HW116112   5.200   0.149   1.167
 5260SOL    HW216113   5.099   0.277   1.173
 5261SOL     OW16114   4.725   0.034   1.154
 5261SOL    HW116115   4.662  -0.038   1.123
 5261SOL    HW216116   4.818  -0.002   1.154
 5262SOL     OW16117   4.494   1.330   0.301
 5262SOL    HW116118   4.448   1.243   0.318
 5262SOL    HW216119   4.585   1.327   0.342
 5263SOL     OW16120   4.342   1.567   1.284
 5263SOL    HW116121   4.337   1.649   1.341
 5263SOL    HW216122   4.431   1.564   1.239
 5264SOL     OW16123   5.076   0.052   0.168
 5264SOL    HW116124   5.111   0.011   0.084
 5264SOL    HW216125   4.986   0.014   0.188
 5265SOL     OW16126   5.024   0.453   0.691
 5265SOL    HW116127   4.965   0.533   0.695
 5265SOL    HW216128   5.039   0.418   0.784
 5266SOL     OW16129   5.317   0.221   0.882
 5266SOL    HW116130   5.233   0.220   0.936
 5266SOL    HW216131   5.319   0.304   0.826
 5267SOL     OW16132   3.763   1.077   0.300
 5267SOL    HW116133   3.862   1.066   0.291
 5267SOL    HW216134   3.723   0.991   0.332
 5268SOL     OW16135   4.599   1.646   0.337
 5268SOL    HW116136   4.522   1.611   0.283
 5268SOL    HW216137   4.567   1.717   0.399
 5269SOL     OW16138   3.954   0.628   1.975
 5269SOL    HW116139   3.861   0.626   2.012
 5269SOL    HW216140   3.955   0.589   1.883
 5270SOL     OW16141   3.949   0.275   2.858
 5270SOL    HW116142   3.984   0.258   2.950
 5270SOL    HW216143   3.861   0.230   2.846
 5271SOL     OW16144   3.743   0.368   2.509
 5271SOL    HW116145   3.661   0.411   2.548
 5271SOL    HW216146   3.715   0.295   2.446
 5272SOL     OW16147   4.293   1.275   3.027
 5272SOL    HW116148   4.200   1.268   2.990
 5272SOL    HW216149   4.304   1.364   3.071
 5273SOL     OW16150   5.279   1.511   2.565
 5273SOL    HW116151   5.222   1.495   2.646
 5273SOL    HW216152   5.220   1.521   2.485
 5274SOL     OW16153   4.859   0.703   2.579
 5274SOL    HW116154   4.916   0.781   2.554
 5274SOL    HW216155   4.799   0.729   2.655
 5275SOL     OW16156   4.492   1.144   2.885
 5275SOL    HW116157   4.414   1.161   2.945
 5275SOL    HW216158   4.526   1.231   2.849
 5276SOL     OW16159   4.574   0.798   3.685
 5276SOL    HW116160   4.570   0.874   3.750
 5276SOL    HW216161   4.596   0.834   3.594
 5277SOL     OW16162   4.409   1.012   2.527
 5277SOL    HW116163   4.478   0.996   2.597
 5277SOL    HW216164   4.336   1.069   2.565
 5278SOL     OW16165   4.410   1.161   3.665
 5278SOL    HW116166   4.470   1.240   3.679
 5278SOL    HW216167   4.324   1.192   3.624
 5279SOL     OW16168   4.059   1.435   2.923
 5279SOL    HW116169   3.981   1.404   2.870
 5279SOL    HW216170   4.117   1.493   2.866
 5280SOL     OW16171   5.184   1.505   3.201
 5280SOL    HW116172   5.208   1.599   3.227
 5280SOL    HW216173   5.168   1.451   3.283
 5281SOL     OW16174   4.162   0.392   3.361
 5281SOL    HW116175   4.244   0.336   3.370
 5281SOL    HW216176   4.081   0.334   3.365
 5282SOL     OW16177   3.955   1.713   2.345
 5282SOL    HW116178   3.989   1.790   2.399
 5282SOL    HW216179   3.999   1.713   2.255
 5283SOL     OW16180   4.851   1.341   3.552
 5283SOL    HW116181   4.898   1.341   3.640
 5283SOL    HW216182   4.803   1.254   3.541
 5284SOL     OW16183   3.954   1.434   2.400
 5284SOL    HW116184   3.928   1.530   2.400
 5284SOL    HW216185   3.883   1.380   2.445
 5285SOL     OW16186   3.964   1.091   2.748
 5285SOL    HW116187   3.978   1.007   2.800
 5285SOL    HW216188   3.909   1.155   2.803
 5286SOL     OW16189   4.344   1.786   3.301
 5286SOL    HW116190   4.252   1.769   3.336
 5286SOL    HW216191   4.372   1.878   3.327
 5287SOL     OW16192   4.330   0.964   1.985
 5287SOL    HW116193   4.337   1.048   1.931
 5287SOL    HW216194   4.376   0.977   2.073
 5288SOL     OW16195   5.318   0.114   3.342
 5288SOL    HW116196   5.300   0.181   3.270
 5288SOL    HW216197   5.315   0.160   3.431
 5289SOL     OW16198   3.846   0.643   2.425
 5289SOL    HW116199   3.801   0.555   2.442
 5289SOL    HW216200   3.845   0.697   2.509
 5290SOL     OW16201   3.751   1.596   1.979
 5290SOL    HW116202   3.732   1.500   2.000
 5290SOL    HW216203   3.718   1.654   2.054
 5291SOL     OW16204   5.413   0.922   2.474
 5291SOL    HW116205   5.508   0.893   2.482
 5291SOL    HW216206   5.405   0.987   2.399
 5292SOL     OW16207   3.837   0.737   3.459
 5292SOL    HW116208   3.925   0.724   3.504
 5292SOL    HW216209   3.824   0.834   3.437
 5293SOL     OW16210   4.337   1.365   2.588
 5293SOL    HW116211   4.288   1.278   2.597
 5293SOL    HW216212   4.314   1.408   2.501
 5294SOL     OW16213   5.017   1.228   3.285
 5294SOL    HW116214   5.054   1.155   3.227
 5294SOL    HW216215   5.069   1.233   3.370
 5295SOL     OW16216   4.533   0.004   2.364
 5295SOL    HW116217   4.573   0.095   2.355
 5295SOL    HW216218   4.433   0.012   2.370
 5296SOL     OW16219   3.921   0.976   3.126
 5296SOL    HW116220   4.010   0.931   3.112
 5296SOL    HW216221   3.848   0.911   3.107
 5297SOL     OW16222   4.911   1.792   3.478
 5297SOL    HW116223   4.935   1.852   3.402
 5297SOL    HW216224   4.918   1.697   3.448
 5298SOL     OW16225   4.041   0.251   3.663
 5298SOL    HW116226   4.112   0.322   3.669
 5298SOL    HW216227   3.953   0.290   3.691
 5299SOL     OW16228   5.190   1.417   2.815
 5299SOL    HW116229   5.131   1.423   2.895
 5299SOL    HW216230   5.175   1.329   2.769
 5300SOL     OW16231   4.322   0.729   2.132
 5300SOL    HW116232   4.346   0.798   2.064
 5300SOL    HW216233   4.244   0.762   2.186
 5301SOL     OW16234   5.005   0.345   2.806
 5301SOL    HW116235   4.919   0.295   2.793
 5301SOL    HW216236   5.067   0.291   2.862
 5302SOL     OW16237   4.531   0.605   3.327
 5302SOL    HW116238   4.484   0.602   3.416
 5302SOL    HW216239   4.480   0.550   3.261
 5303SOL     OW16240   5.118   0.469   3.536
 5303SOL    HW116241   5.098   0.512   3.624
 5303SOL    HW216242   5.196   0.407   3.545
 5304SOL     OW16243   4.697   0.890   3.434
 5304SOL    HW116244   4.743   0.806   3.405
 5304SOL    HW216245   4.641   0.924   3.359
 5305SOL     OW16246   4.715   0.410   3.104
 5305SOL    HW116247   4.638   0.444   3.158
 5305SOL    HW216248   4.681   0.359   3.025
 5306SOL     OW16249   4.765   0.701   2.291
 5306SOL    HW116250   4.791   0.697   2.387
 5306SOL    HW216251   4.680   0.650   2.277
 5307SOL     OW16252   3.800   0.811   2.651
 5307SOL    HW116253   3.899   0.799   2.660
 5307SOL    HW216254   3.776   0.906   2.672
 5308SOL     OW16255   3.854   1.821   3.433
 5308SOL    HW116256   3.844   1.806   3.532
 5308SOL    HW216257   3.768   1.857   3.397
 5309SOL     OW16258   4.589   0.348   2.057
 5309SOL    HW116259   4.648   0.411   2.008
 5309SOL    HW216260   4.608   0.254   2.028
 5310SOL     OW16261   5.086   1.144   2.407
 5310SOL    HW116262   5.169   1.115   2.359
 5310SOL    HW216263   5.037   1.211   2.351
 5311SOL     OW16264   4.274   0.196   2.747
 5311SOL    HW116265   4.269   0.191   2.847
 5311SOL    HW216266   4.276   0.292   2.718
 5312SOL     OW16267   4.732   1.456   2.339
 5312SOL    HW116268   4.686   1.528   2.287
 5312SOL    HW216269   4.728   1.476   2.437
 5313SOL     OW16270   4.075   1.801   2.715
 5313SOL    HW116271   4.125   1.715   2.721
 5313SOL    HW216272   4.140   1.878   2.712
 5314SOL     OW16273   4.951   1.550   3.368
 5314SOL    HW116274   4.957   1.473   3.432
 5314SOL    HW216275   4.899   1.524   3.288
 5315SOL     OW16276   4.045   0.943   2.104
 5315SOL    HW116277   4.127   0.982   2.062
 5315SOL    HW216278   4.018   0.861   2.055
 5316SOL     OW16279   4.185   1.266   3.589
 5316SOL    HW116280   4.135   1.267   3.503
 5316SOL    HW216281   4.122   1.248   3.665
 5317SOL     OW16282   4.835   1.776   2.099
 5317SOL    HW116283   4.775   1.714   2.149
 5317SOL    HW216284   4.866   1.732   2.014
 5318SOL     OW16285   3.926   0.285   3.360
 5318SOL    HW116286   3.846   0.345   3.347
 5318SOL    HW216287   3.916   0.236   3.446
 5319SOL     OW16288   4.188   1.743   2.185
 5319SOL    HW116289   4.221   1.782   2.271
 5319SOL    HW216290   4.264   1.736   2.120
 5320SOL     OW16291   5.124   0.107   2.288
 5320SOL    HW116292   5.100   0.070   2.198
 5320SOL    HW216293   5.223   0.123   2.292
 5321SOL     OW16294   3.973   1.785   3.103
 5321SOL    HW116295   4.030   1.720   3.153
 5321SOL    HW216296   3.957   1.752   3.010
 5322SOL     OW16297   4.664   1.698   2.766
 5322SOL    HW116298   4.744   1.641   2.787
 5322SOL    HW216299   4.615   1.658   2.689
 5323SOL     OW16300   4.106   0.700   2.342
 5323SOL    HW116301   4.151   0.610   2.339
 5323SOL    HW216302   4.012   0.689   2.375
 5324SOL     OW16303   4.338   0.122   1.979
 5324SOL    HW116304   4.436   0.100   1.986
 5324SOL    HW216305   4.307   0.105   1.886
 5325SOL     OW16306   4.505   0.264   3.611
 5325SOL    HW116307   4.572   0.203   3.654
 5325SOL    HW216308   4.432   0.283   3.676
 5326SOL     OW16309   4.612   1.514   3.057
 5326SOL    HW116310   4.589   1.489   2.963
 5326SOL    HW216311   4.673   1.445   3.096
 5327SOL     OW16312   5.075   0.590   3.295
 5327SOL    HW116313   5.103   0.547   3.380
 5327SOL    HW216314   5.100   0.686   3.296
 5328SOL     OW16315   4.527   1.402   2.786
 5328SOL    HW116316   4.617   1.416   2.744
 5328SOL    HW216317   4.456   1.404   2.715
 5329SOL     OW16318   4.646   0.503   2.761
 5329SOL    HW116319   4.621   0.494   2.665
 5329SOL    HW216320   4.694   0.421   2.792
 5330SOL     OW16321   4.263   0.064   2.374
 5330SOL    HW116322   4.182   0.065   2.432
 5330SOL    HW216323   4.266   0.147   2.319
 5331SOL     OW16324   5.158   1.188   1.903
 5331SOL    HW116325   5.190   1.112   1.960
 5331SOL    HW216326   5.066   1.215   1.933
 5332SOL     OW16327   4.021   0.035   2.033
 5332SOL    HW116328   4.070   0.119   2.012
 5332SOL    HW216329   4.083  -0.030   2.078
 5333SOL     OW16330   4.659   0.236   2.342
 5333SOL    HW116331   4.611   0.277   2.264
 5333SOL    HW216332   4.758   0.234   2.323
 5334SOL     OW16333   4.800   0.683   3.326
 5334SOL    HW116334   4.720   0.622   3.329
 5334SOL    HW216335   4.881   0.630   3.302
 5335SOL     OW16336   4.951   1.570   2.655
 5335SOL    HW116337   4.972   1.644   2.590
 5335SOL    HW216338   5.019   1.570   2.728
 5336SOL     OW16339   4.183   1.152   2.603
 5336SOL    HW116340   4.112   1.125   2.668
 5336SOL    HW216341   4.157   1.124   2.510
 5337SOL     OW16342   4.995   1.797   2.453
 5337SOL    HW116343   5.039   1.861   2.389
 5337SOL    HW216344   4.945   1.849   2.523
 5338SOL     OW16345   4.756   0.549   1.878
 5338SOL    HW116346   4.715   0.631   1.839
 5338SOL    HW216347   4.820   0.575   1.951
 5339SOL     OW16348   3.802   0.556   3.248
 5339SOL    HW116349   3.894   0.555   3.207
 5339SOL    HW216350   3.796   0.630   3.315
 5340SOL     OW16351   4.285   0.222   3.009
 5340SOL    HW116352   4.323   0.138   3.046
 5340SOL    HW216353   4.197   0.241   3.053
 5341SOL     OW16354   4.590   0.454   2.504
 5341SOL    HW116355   4.558   0.526   2.442
 5341SOL    HW216356   4.614   0.373   2.451
 5342SOL     OW16357   4.741   0.039   2.615
 5342SOL    HW116358   4.669   0.044   2.546
 5342SOL    HW216359   4.717  -0.030   2.684
 5343SOL     OW16360   5.153   1.173   2.729
 5343SOL    HW116361   5.098   1.089   2.722
 5343SOL    HW216362   5.179   1.202   2.637
 5344SOL     OW16363   4.212   1.385   2.036
 5344SOL    HW116364   4.125   1.370   2.083
 5344SOL    HW216365   4.195   1.411   1.941
 5345SOL     OW16366   5.114   0.575   1.940
 5345SOL    HW116367   5.060   0.554   2.021
 5345SOL    HW216368   5.205   0.534   1.949
 5346SOL     OW16369   4.251   0.256   2.190
 5346SOL    HW116370   4.278   0.197   2.115
 5346SOL    HW216371   4.251   0.351   2.159
 5347SOL     OW16372   4.788   1.347   3.202
 5347SOL    HW116373   4.708   1.324   3.257
 5347SOL    HW216374   4.871   1.321   3.251
 5348SOL     OW16375   5.316   1.629   3.487
 5348SOL    HW116376   5.343   1.663   3.397
 5348SOL    HW216377   5.395   1.591   3.533
 5349SOL     OW16378   4.835   1.195   2.962
 5349SOL    HW116379   4.795   1.239   3.043
 5349SOL    HW216380   4.794   1.232   2.879
 5350SOL     OW16381   4.639   0.089   3.264
 5350SOL    HW116382   4.664   0.069   3.169
 5350SOL    HW216383   4.711   0.145   3.306
 5351SOL     OW16384   4.704   1.116   3.581
 5351SOL    HW116385   4.605   1.122   3.591
 5351SOL    HW216386   4.727   1.036   3.525
 5352SOL     OW16387   4.429   1.050   2.230
 5352SOL    HW116388   4.415   1.057   2.329
 5352SOL    HW216389   4.513   0.999   2.212
 5353SOL     OW16390   4.134   0.813   3.113
 5353SOL    HW116391   4.220   0.825   3.163
 5353SOL    HW216392   4.092   0.726   3.140
 5354SOL     OW16393   4.998   0.386   3.124
 5354SOL    HW116394   5.019   0.460   3.188
 5354SOL    HW216395   4.909   0.403   3.081
 5355SOL     OW16396   3.788   1.564   3.193
 5355SOL    HW116397   3.742   1.646   3.159
 5355SOL    HW216398   3.886   1.583   3.202
 5356SOL     OW16399   4.091   1.100   2.363
 5356SOL    HW116400   4.084   1.183   2.307
 5356SOL    HW216401   4.095   1.020   2.303
 5357SOL     OW16402   4.290   0.537   2.727
 5357SOL    HW116403   4.302   0.603   2.653
 5357SOL    HW216404   4.336   0.571   2.810
 5358SOL     OW16405   4.976   1.348   2.250
 5358SOL    HW116406   5.026   1.425   2.290
 5358SOL    HW216407   4.881   1.350   2.282
 5359SOL     OW16408   4.996   1.445   3.004
 5359SOL    HW116409   5.043   1.458   3.091
 5359SOL    HW216410   4.930   1.371   3.013
 5360SOL     OW16411   4.078   1.510   3.191
 5360SOL    HW116412   4.057   1.466   3.104
 5360SOL    HW216413   4.175   1.536   3.194
 5361SOL     OW16414   4.126   0.751   3.460
 5361SOL    HW116415   4.194   0.806   3.413
 5361SOL    HW216416   4.166   0.663   3.487
 5362SOL     OW16417   4.737   0.105   3.632
 5362SOL    HW116418   4.743   0.190   3.580
 5362SOL    HW216419   4.769   0.029   3.575
 5363SOL     OW16420   4.228   0.050   3.602
 5363SOL    HW116421   4.186  -0.007   3.532
 5363SOL    HW216422   4.162   0.119   3.634
 5364SOL     OW16423   4.297   0.870   2.891
 5364SOL    HW116424   4.341   0.959   2.882
 5364SOL    HW216425   4.234   0.870   2.968
 5365SOL     OW16426   5.084   0.862   2.907
 5365SOL    HW116427   5.009   0.862   2.841
 5365SOL    HW216428   5.121   0.770   2.916
 5366SOL     OW16429   4.933   0.525   2.137
 5366SOL    HW116430   4.946   0.441   2.191
 5366SOL    HW216431   4.904   0.599   2.197
 5367SOL     OW16432   4.031   0.213   3.093
 5367SOL    HW116433   4.008   0.250   3.183
 5367SOL    HW216434   4.001   0.118   3.087
 5368SOL     OW16435   3.761   1.310   3.144
 5368SOL    HW116436   3.814   1.261   3.212
 5368SOL    HW216437   3.783   1.408   3.149
 5369SOL     OW16438   4.456   0.634   2.926
 5369SOL    HW116439   4.515   0.608   2.850
 5369SOL    HW216440   4.428   0.730   2.915
 5370SOL     OW16441   4.031   0.063   2.480
 5370SOL    HW116442   4.020   0.157   2.513
 5370SOL    HW216443   4.026   0.000   2.557
 5371SOL     OW16444   5.346   0.367   2.236
 5371SOL    HW116445   5.348   0.291   2.300
 5371SOL    HW216446   5.298   0.444   2.276
 5372SOL     OW16447   4.747   0.766   2.828
 5372SOL    HW116448   4.762   0.787   2.924
 5372SOL    HW216449   4.717   0.671   2.819
 5373SOL     OW16450   4.704   1.573   3.562
 5373SOL    HW116451   4.684   1.617   3.474
 5373SOL    HW216452   4.743   1.482   3.546
 5374SOL     OW16453   4.074   0.898   3.666
 5374SOL    HW116454   4.150   0.942   3.714
 5374SOL    HW216455   4.109   0.851   3.584
 5375SOL     OW16456   5.027   0.838   1.904
 5375SOL    HW116457   5.061   0.745   1.919
 5375SOL    HW216458   5.045   0.865   1.809
 5376SOL     OW16459   4.792   1.333   2.711
 5376SOL    HW116460   4.799   1.249   2.656
 5376SOL    HW216461   4.854   1.402   2.675
 5377SOL     OW16462   4.043   0.810   2.811
 5377SOL    HW116463   4.136   0.846   2.816
 5377SOL    HW216464   4.037   0.725   2.863
 5378SOL     OW16465   4.063   0.509   2.868
 5378SOL    HW116466   4.011   0.426   2.851
 5378SOL    HW216467   4.140   0.514   2.804
 5379SOL     OW16468   4.862   0.380   3.540
 5379SOL    HW116469   4.817   0.443   3.604
 5379SOL    HW216470   4.955   0.411   3.523
 5380SOL     OW16471   4.884   0.207   3.339
 5380SOL    HW116472   4.884   0.271   3.416
 5380SOL    HW216473   4.912   0.255   3.256
 5381SOL     OW16474   3.732   1.326   2.062
 5381SOL    HW116475   3.639   1.347   2.031
 5381SOL    HW216476   3.742   1.227   2.075
 5382SOL     OW16477   3.812   1.801   2.789
 5382SOL    HW116478   3.770   1.715   2.762
 5382SOL    HW216479   3.906   1.804   2.755
 5383SOL     OW16480   4.228   1.568   2.772
 5383SOL    HW116481   4.294   1.642   2.781
 5383SOL    HW216482   4.272   1.489   2.730
 5384SOL     OW16483   4.726   0.796   3.100
 5384SOL    HW116484   4.767   0.764   3.186
 5384SOL    HW216485   4.630   0.769   3.097
 5385SOL     OW16486   3.764   0.544   2.976
 5385SOL    HW116487   3.849   0.511   2.935
 5385SOL    HW216488   3.777   0.559   3.074
 5386SOL     OW16489   3.913   0.520   3.584
 5386SOL    HW116490   3.972   0.480   3.514
 5386SOL    HW216491   3.855   0.591   3.543
 5387SOL     OW16492   5.093   0.950   3.522
 5387SOL    HW116493   5.132   1.039   3.542
 5387SOL    HW216494   5.103   0.930   3.425
 5388SOL     OW16495   4.539   0.572   2.187
 5388SOL    HW116496   4.546   0.483   2.141
 5388SOL    HW216497   4.445   0.606   2.179
 5389SOL     OW16498   3.976   1.564   3.606
 5389SOL    HW116499   3.946   1.621   3.682
 5389SOL    HW216500   3.969   1.467   3.632
 5390SOL     OW16501   4.395   0.464   3.131
 5390SOL    HW116502   4.361   0.375   3.101
 5390SOL    HW216503   4.421   0.518   3.051
 5391SOL     OW16504   4.654   1.678   3.327
 5391SOL    HW116505   4.630   1.660   3.232
 5391SOL    HW216506   4.684   1.772   3.337
 5392SOL     OW16507   4.197   0.500   2.053
 5392SOL    HW116508   4.258   0.580   2.057
 5392SOL    HW216509   4.102   0.531   2.060
 5393SOL     OW16510   3.883   1.137   3.328
 5393SOL    HW116511   3.905   1.076   3.404
 5393SOL    HW216512   3.893   1.088   3.242
 5394SOL     OW16513   5.071   1.059   3.096
 5394SOL    HW116514   5.095   0.996   3.022
 5394SOL    HW216515   4.981   1.099   3.078
 5395SOL     OW16516   5.026   0.855   2.171
 5395SOL    HW116517   4.940   0.824   2.213
 5395SOL    HW216518   5.022   0.841   2.072
 5396SOL     OW16519   4.976   1.731   2.990
 5396SOL    HW116520   5.060   1.736   2.936
 5396SOL    HW216521   4.953   1.635   3.008
 5397SOL     OW16522   3.807   1.258   2.884
 5397SOL    HW116523   3.802   1.257   2.984
 5397SOL    HW216524   3.724   1.217   2.846
 5398SOL     OW16525   4.412   1.662   3.578
 5398SOL    HW116526   4.356   1.743   3.587
 5398SOL    HW216527   4.464   1.666   3.492
 5399SOL     OW16528   5.112   1.573   2.339
 5399SOL    HW116529   5.179   1.585   2.265
 5399SOL    HW216530   5.072   1.662   2.362
 5400SOL     OW16531   3.854   1.794   3.713
 5400SOL    HW116532   3.813   1.720   3.766
 5400SOL    HW216533   3.918   1.845   3.771
 5401SOL     OW16534   5.004   0.927   2.534
 5401SOL    HW116535   5.064   0.846   2.536
 5401SOL    HW216536   5.044   0.996   2.474
 5402SOL     OW16537   4.554   1.273   3.284
 5402SOL    HW116538   4.549   1.306   3.379
 5402SOL    HW216539   4.468   1.292   3.238
 5403SOL     OW16540   4.396   1.616   2.016
 5403SOL    HW116541   4.405   1.626   1.917
 5403SOL    HW216542   4.356   1.527   2.037
 5404SOL     OW16543   3.987   0.326   2.582
 5404SOL    HW116544   3.908   0.377   2.548
 5404SOL    HW216545   3.978   0.311   2.680
 5405SOL     OW16546   4.918   1.612   1.893
 5405SOL    HW116547   4.924   1.519   1.930
 5405SOL    HW216548   4.859   1.612   1.813
 5406SOL     OW16549   4.546   1.002   3.234
 5406SOL    HW116550   4.586   1.001   3.142
 5406SOL    HW216551   4.556   1.094   3.274
 5407SOL     OW16552   4.640   0.910   2.153
 5407SOL    HW116553   4.703   0.948   2.085
 5407SOL    HW216554   4.680   0.827   2.192
 5408SOL     OW16555   4.096   1.288   3.352
 5408SOL    HW116556   4.083   1.381   3.318
 5408SOL    HW216557   4.012   1.236   3.339
 5409SOL     OW16558   4.763   1.098   2.558
 5409SOL    HW116559   4.693   1.051   2.612
 5409SOL    HW216560   4.822   1.030   2.515
 5410SOL     OW16561   4.738   0.236   2.833
 5410SOL    HW116562   4.730   0.200   2.740
 5410SOL    HW216563   4.736   0.160   2.898
 5411SOL     OW16564   4.314   1.487   2.353
 5411SOL    HW116565   4.356   1.429   2.283
 5411SOL    HW216566   4.270   1.566   2.309
 5412SOL     OW16567   3.979   1.348   2.152
 5412SOL    HW116568   3.883   1.349   2.125
 5412SOL    HW216569   3.991   1.401   2.236
 5413SOL     OW16570   3.829   1.013   3.588
 5413SOL    HW116571   3.752   0.980   3.642
 5413SOL    HW216572   3.914   0.983   3.630
 5414SOL     OW16573   4.396   0.203   3.351
 5414SOL    HW116574   4.486   0.187   3.311
 5414SOL    HW216575   4.404   0.208   3.450
 5415SOL     OW16576   3.799   0.345   1.895
 5415SOL    HW116577   3.707   0.317   1.866
 5415SOL    HW216578   3.830   0.422   1.839
 5416SOL     OW16579   5.164   0.856   3.260
 5416SOL    HW116580   5.107   0.908   3.197
 5416SOL    HW216581   5.260   0.868   3.236
 5417SOL     OW16582   3.796   0.166   2.180
 5417SOL    HW116583   3.779   0.249   2.126
 5417SOL    HW216584   3.886   0.129   2.158
 5418SOL     OW16585   4.907   1.335   1.981
 5418SOL    HW116586   4.808   1.324   1.983
 5418SOL    HW216587   4.941   1.350   2.074
 5419SOL     OW16588   4.337   0.842   3.293
 5419SOL    HW116589   4.393   0.923   3.276
 5419SOL    HW216590   4.396   0.762   3.296
 5420SOL     OW16591   4.440   0.565   3.570
 5420SOL    HW116592   4.459   0.630   3.644
 5420SOL    HW216593   4.500   0.485   3.579
 5421SOL     OW16594   5.174   1.220   3.495
 5421SOL    HW116595   5.165   1.210   3.594
 5421SOL    HW216596   5.270   1.213   3.469
 5422SOL     OW16597   4.114   1.741   3.422
 5422SOL    HW116598   4.023   1.782   3.420
 5422SOL    HW216599   4.107   1.647   3.454
 5423SOL     OW16600   4.949   0.325   2.311
 5423SOL    HW116601   5.014   0.251   2.300
 5423SOL    HW216602   4.969   0.375   2.395
 5424SOL     OW16603   4.318   0.745   2.514
 5424SOL    HW116604   4.368   0.830   2.495
 5424SOL    HW216605   4.230   0.747   2.466
 5425SOL     OW16606   4.583   1.374   1.878
 5425SOL    HW116607   4.537   1.389   1.966
 5425SOL    HW216608   4.627   1.459   1.848
 5426SOL     OW16609   4.385   1.790   2.815
 5426SOL    HW116610   4.339   1.878   2.802
 5426SOL    HW216611   4.484   1.802   2.808
 5427SOL     OW16612   4.583   0.956   2.723
 5427SOL    HW116613   4.637   0.887   2.771
 5427SOL    HW216614   4.551   1.025   2.789
 5428SOL     OW16615   4.807   0.984   1.949
 5428SOL    HW116616   4.784   1.037   1.867
 5428SOL    HW216617   4.888   0.928   1.930
 5429SOL     OW16618   3.945   1.314   3.706
 5429SOL    HW116619   3.880   1.241   3.685
 5429SOL    HW216620   3.949   1.328   3.804
 5430SOL     OW16621   3.803   1.240   2.515
 5430SOL    HW116622   3.802   1.193   2.603
 5430SOL    HW216623   3.885   1.212   2.464
 5431SOL     OW16624   4.396   1.391   3.486
 5431SOL    HW116625   4.318   1.341   3.524
 5431SOL    HW216626   4.393   1.486   3.517
 5432SOL     OW16627   4.152   0.424   2.382
 5432SOL    HW116628   4.182   0.352   2.320
 5432SOL    HW216629   4.113   0.384   2.465
 5433SOL     OW16630   5.429   1.487   2.966
 5433SOL    HW116631   5.336   1.462   2.939
 5433SOL    HW216632   5.455   1.437   3.048
 5434SOL     OW16633   4.041   0.547   3.142
 5434SOL    HW116634   4.079   0.488   3.214
 5434SOL    HW216635   4.081   0.521   3.054
 5435SOL     OW16636   4.536   1.586   2.549
 5435SOL    HW116637   4.568   1.596   2.455
 5435SOL    HW216638   4.457   1.524   2.551
 5436SOL     OW16639   5.148   0.214   2.974
 5436SOL    HW116640   5.200   0.149   3.029
 5436SOL    HW216641   5.099   0.277   3.035
 5437SOL     OW16642   4.725   0.034   3.016
 5437SOL    HW116643   4.662  -0.038   2.985
 5437SOL    HW216644   4.818  -0.002   3.016
 5438SOL     OW16645   4.494   1.330   2.163
 5438SOL    HW116646   4.448   1.243   2.180
 5438SOL    HW216647   4.585   1.327   2.204
 5439SOL     OW16648   4.342   1.567   3.146
 5439SOL    HW116649   4.337   1.649   3.203
 5439SOL    HW216650   4.431   1.564   3.101
 5440SOL     OW16651   5.076   0.052   2.030
 5440SOL    HW116652   5.111   0.011   1.946
 5440SOL    HW216653   4.986   0.014   2.050
 5441SOL     OW16654   5.024   0.453   2.553
 5441SOL    HW116655   4.965   0.533   2.557
 5441SOL    HW216656   5.039   0.418   2.646
 5442SOL     OW16657   5.317   0.221   2.744
 5442SOL    HW116658   5.233   0.220   2.798
 5442SOL    HW216659   5.319   0.304   2.688
 5443SOL     OW16660   3.763   1.077   2.162
 5443SOL    HW116661   3.862   1.066   2.153
 5443SOL    HW216662   3.723   0.991   2.194
 5444SOL     OW16663   4.599   1.646   2.199
 5444SOL    HW116664   4.522   1.611   2.145
 5444SOL    HW216665   4.567   1.717   2.261
 5445SOL     OW16666   3.954   0.628   3.837
 5445SOL    HW116667   3.861   0.626   3.874
 5445SOL    HW216668   3.955   0.589   3.745
 5446SOL     OW16669   3.949   0.275   4.720
 5446SOL    HW116670   3.984   0.258   4.812
 5446SOL    HW216671   3.861   0.230   4.708
 5447SOL     OW16672   3.743   0.368   4.371
 5447SOL    HW116673   3.661   0.411   4.410
 5447SOL    HW216674   3.715   0.295   4.308
 5448SOL     OW16675   4.293   1.275   4.889
 5448SOL    HW116676   4.200   1.268   4.852
 5448SOL    HW216677   4.304   1.364   4.933
 5449SOL     OW16678   5.279   1.511   4.427
 5449SOL    HW116679   5.222   1.495   4.508
 5449SOL    HW216680   5.220   1.521   4.347
 5450SOL     OW16681   4.859   0.703   4.441
 5450SOL    HW116682   4.916   0.781   4.416
 5450SOL    HW216683   4.799   0.729   4.517
 5451SOL     OW16684   4.492   1.144   4.747
 5451SOL    HW116685   4.414   1.161   4.807
 5451SOL    HW216686   4.526   1.231   4.711
 5452SOL     OW16687   4.574   0.798   5.547
 5452SOL    HW116688   4.570   0.874   5.612
 5452SOL    HW216689   4.596   0.834   5.456
 5453SOL     OW16690   4.409   1.012   4.389
 5453SOL    HW116691   4.478   0.996   4.459
 5453SOL    HW216692   4.336   1.069   4.427
 5454SOL     OW16693   4.410   1.161   5.527
 5454SOL    HW116694   4.470   1.240   5.541
 5454SOL    HW216695   4.324   1.192   5.486
 5455SOL     OW16696   4.059   1.435   4.785
 5455SOL    HW116697   3.981   1.404   4.732
 5455SOL    HW216698   4.117   1.493   4.728
 5456SOL     OW16699   5.184   1.505   5.063
 5456SOL    HW116700   5.208   1.599   5.089
 5456SOL    HW216701   5.168   1.451   5.145
 5457SOL     OW16702   4.162   0.392   5.223
 5457SOL    HW116703   4.244   0.336   5.232
 5457SOL    HW216704   4.081   0.334   5.227
 5458SOL     OW16705   3.955   1.713   4.207
 5458SOL    HW116706   3.989   1.790   4.261
 5458SOL    HW216707   3.999   1.713   4.117
 5459SOL     OW16708   4.851   1.341   5.414
 5459SOL    HW116709   4.898   1.341   5.502
 5459SOL    HW216710   4.803   1.254   5.403
 5460SOL     OW16711   3.954   1.434   4.262
 5460SOL    HW116712   3.928   1.530   4.262
 5460SOL    HW216713   3.883   1.380   4.307
 5461SOL     OW16714   3.964   1.091   4.610
 5461SOL    HW116715   3.978   1.007   4.662
 5461SOL    HW216716   3.909   1.155   4.665
 5462SOL     OW16717   4.344   1.786   5.163
 5462SOL    HW116718   4.252   1.769   5.198
 5462SOL    HW216719   4.372   1.878   5.189
 5463SOL     OW16720   4.330   0.964   3.847
 5463SOL    HW116721   4.337   1.048   3.793
 5463SOL    HW216722   4.376   0.977   3.935
 5464SOL     OW16723   5.318   0.114   5.204
 5464SOL    HW116724   5.300   0.181   5.132
 5464SOL    HW216725   5.315   0.160   5.293
 5465SOL     OW16726   3.846   0.643   4.287
 5465SOL    HW116727   3.801   0.555   4.304
 5465SOL    HW216728   3.845   0.697   4.371
 5466SOL     OW16729   3.751   1.596   3.841
 5466SOL    HW116730   3.732   1.500   3.862
 5466SOL    HW216731   3.718   1.654   3.916
 5467SOL     OW16732   5.413   0.922   4.336
 5467SOL    HW116733   5.508   0.893   4.344
 5467SOL    HW216734   5.405   0.987   4.261
 5468SOL     OW16735   3.837   0.737   5.321
 5468SOL    HW116736   3.925   0.724   5.366
 5468SOL    HW216737   3.824   0.834   5.299
 5469SOL     OW16738   4.337   1.365   4.450
 5469SOL    HW116739   4.288   1.278   4.459
 5469SOL    HW216740   4.314   1.408   4.363
 5470SOL     OW16741   5.017   1.228   5.147
 5470SOL    HW116742   5.054   1.155   5.089
 5470SOL    HW216743   5.069   1.233   5.232
 5471SOL     OW16744   4.533   0.004   4.226
 5471SOL    HW116745   4.573   0.095   4.217
 5471SOL    HW216746   4.433   0.012   4.232
 5472SOL     OW16747   3.921   0.976   4.988
 5472SOL    HW116748   4.010   0.931   4.974
 5472SOL    HW216749   3.848   0.911   4.969
 5473SOL     OW16750   4.911   1.792   5.340
 5473SOL    HW116751   4.935   1.852   5.264
 5473SOL    HW216752   4.918   1.697   5.310
 5474SOL     OW16753   4.041   0.251   5.525
 5474SOL    HW116754   4.112   0.322   5.531
 5474SOL    HW216755   3.953   0.290   5.553
 5475SOL     OW16756   5.190   1.417   4.677
 5475SOL    HW116757   5.131   1.423   4.757
 5475SOL    HW216758   5.175   1.329   4.631
 5476SOL     OW16759   4.322   0.729   3.994
 5476SOL    HW116760   4.346   0.798   3.926
 5476SOL    HW216761   4.244   0.762   4.048
 5477SOL     OW16762   5.005   0.345   4.668
 5477SOL    HW116763   4.919   0.295   4.655
 5477SOL    HW216764   5.067   0.291   4.724
 5478SOL     OW16765   4.531   0.605   5.189
 5478SOL    HW116766   4.484   0.602   5.278
 5478SOL    HW216767   4.480   0.550   5.123
 5479SOL     OW16768   5.118   0.469   5.398
 5479SOL    HW116769   5.098   0.512   5.486
 5479SOL    HW216770   5.196   0.407   5.407
 5480SOL     OW16771   4.697   0.890   5.296
 5480SOL    HW116772   4.743   0.806   5.267
 5480SOL    HW216773   4.641   0.924   5.221
 5481SOL     OW16774   4.715   0.410   4.966
 5481SOL    HW116775   4.638   0.444   5.020
 5481SOL    HW216776   4.681   0.359   4.887
 5482SOL     OW16777   4.765   0.701   4.153
 5482SOL    HW116778   4.791   0.697   4.249
 5482SOL    HW216779   4.680   0.650   4.139
 5483SOL     OW16780   3.800   0.811   4.513
 5483SOL    HW116781   3.899   0.799   4.522
 5483SOL    HW216782   3.776   0.906   4.534
 5484SOL     OW16783   3.854   1.821   5.295
 5484SOL    HW116784   3.844   1.806   5.394
 5484SOL    HW216785   3.768   1.857   5.259
 5485SOL     OW16786   4.589   0.348   3.919
 5485SOL    HW116787   4.648   0.411   3.870
 5485SOL    HW216788   4.608   0.254   3.890
 5486SOL     OW16789   5.086   1.144   4.269
 5486SOL    HW116790   5.169   1.115   4.221
 5486SOL    HW216791   5.037   1.211   4.213
 5487SOL     OW16792   4.274   0.196   4.609
 5487SOL    HW116793   4.269   0.191   4.709
 5487SOL    HW216794   4.276   0.292   4.580
 5488SOL     OW16795   4.732   1.456   4.201
 5488SOL    HW116796   4.686   1.528   4.149
 5488SOL    HW216797   4.728   1.476   4.299
 5489SOL     OW16798   4.075   1.801   4.577
 5489SOL    HW116799   4.125   1.715   4.583
 5489SOL    HW216800   4.140   1.878   4.574
 5490SOL     OW16801   4.951   1.550   5.230
 5490SOL    HW116802   4.957   1.473   5.294
 5490SOL    HW216803   4.899   1.524   5.150
 5491SOL     OW16804   4.045   0.943   3.966
 5491SOL    HW116805   4.127   0.982   3.924
 5491SOL    HW216806   4.018   0.861   3.917
 5492SOL     OW16807   4.185   1.266   5.451
 5492SOL    HW116808   4.135   1.267   5.365
 5492SOL    HW216809   4.122   1.248   5.527
 5493SOL     OW16810   4.835   1.776   3.961
 5493SOL    HW116811   4.775   1.714   4.011
 5493SOL    HW216812   4.866   1.732   3.876
 5494SOL     OW16813   3.926   0.285   5.222
 5494SOL    HW116814   3.846   0.345   5.209
 5494SOL    HW216815   3.916   0.236   5.308
 5495SOL     OW16816   4.188   1.743   4.047
 5495SOL    HW116817   4.221   1.782   4.133
 5495SOL    HW216818   4.264   1.736   3.982
 5496SOL     OW16819   5.124   0.107   4.150
 5496SOL    HW116820   5.100   0.070   4.060
 5496SOL    HW216821   5.223   0.123   4.154
 5497SOL     OW16822   3.973   1.785   4.965
 5497SOL    HW116823   4.030   1.720   5.015
 5497SOL    HW216824   3.957   1.752   4.872
 5498SOL     OW16825   4.664   1.698   4.628
 5498SOL    HW116826   4.744   1.641   4.649
 5498SOL    HW216827   4.615   1.658   4.551
 5499SOL     OW16828   4.106   0.700   4.204
 5499SOL    HW116829   4.151   0.610   4.201
 5499SOL    HW216830   4.012   0.689   4.237
 5500SOL     OW16831   4.338   0.122   3.841
 5500SOL    HW116832   4.436   0.100   3.848
 5500SOL    HW216833   4.307   0.105   3.748
 5501SOL     OW16834   4.505   0.264   5.473
 5501SOL    HW116835   4.572   0.203   5.516
 5501SOL    HW216836   4.432   0.283   5.538
 5502SOL     OW16837   4.612   1.514   4.919
 5502SOL    HW116838   4.589   1.489   4.825
 5502SOL    HW216839   4.673   1.445   4.958
 5503SOL     OW16840   5.075   0.590   5.157
 5503SOL    HW116841   5.103   0.547   5.242
 5503SOL    HW216842   5.100   0.686   5.158
 5504SOL     OW16843   4.527   1.402   4.648
 5504SOL    HW116844   4.617   1.416   4.606
 5504SOL    HW216845   4.456   1.404   4.577
 5505SOL     OW16846   4.646   0.503   4.623
 5505SOL    HW116847   4.621   0.494   4.527
 5505SOL    HW216848   4.694   0.421   4.654
 5506SOL     OW16849   4.263   0.064   4.236
 5506SOL    HW116850   4.182   0.065   4.294
 5506SOL    HW216851   4.266   0.147   4.181
 5507SOL     OW16852   5.158   1.188   3.765
 5507SOL    HW116853   5.190   1.112   3.822
 5507SOL    HW216854   5.066   1.215   3.795
 5508SOL     OW16855   4.021   0.035   3.895
 5508SOL    HW116856   4.070   0.119   3.874
 5508SOL    HW216857   4.083  -0.030   3.940
 5509SOL     OW16858   4.659   0.236   4.204
 5509SOL    HW116859   4.611   0.277   4.126
 5509SOL    HW216860   4.758   0.234   4.185
 5510SOL     OW16861   4.800   0.683   5.188
 5510SOL    HW116862   4.720   0.622   5.191
 5510SOL    HW216863   4.881   0.630   5.164
 5511SOL     OW16864   4.951   1.570   4.517
 5511SOL    HW116865   4.972   1.644   4.452
 5511SOL    HW216866   5.019   1.570   4.590
 5512SOL     OW16867   4.183   1.152   4.465
 5512SOL    HW116868   4.112   1.125   4.530
 5512SOL    HW216869   4.157   1.124   4.372
 5513SOL     OW16870   4.995   1.797   4.315
 5513SOL    HW116871   5.039   1.861   4.251
 5513SOL    HW216872   4.945   1.849   4.385
 5514SOL     OW16873   4.756   0.549   3.740
 5514SOL    HW116874   4.715   0.631   3.701
 5514SOL    HW216875   4.820   0.575   3.813
 5515SOL     OW16876   3.802   0.556   5.110
 5515SOL    HW116877   3.894   0.555   5.069
 5515SOL    HW216878   3.796   0.630   5.177
 5516SOL     OW16879   4.285   0.222   4.871
 5516SOL    HW116880   4.323   0.138   4.908
 5516SOL    HW216881   4.197   0.241   4.915
 5517SOL     OW16882   4.590   0.454   4.366
 5517SOL    HW116883   4.558   0.526   4.304
 5517SOL    HW216884   4.614   0.373   4.313
 5518SOL     OW16885   4.741   0.039   4.477
 5518SOL    HW116886   4.669   0.044   4.408
 5518SOL    HW216887   4.717  -0.030   4.546
 5519SOL     OW16888   5.153   1.173   4.591
 5519SOL    HW116889   5.098   1.089   4.584
 5519SOL    HW216890   5.179   1.202   4.499
 5520SOL     OW16891   4.212   1.385   3.898
 5520SOL    HW116892   4.125   1.370   3.945
 5520SOL    HW216893   4.195   1.411   3.803
 5521SOL     OW16894   5.114   0.575   3.802
 5521SOL    HW116895   5.060   0.554   3.883
 5521SOL    HW216896   5.205   0.534   3.811
 5522SOL     OW16897   4.251   0.256   4.052
 5522SOL    HW116898   4.278   0.197   3.977
 5522SOL    HW216899   4.251   0.351   4.021
 5523SOL     OW16900   4.788   1.347   5.064
 5523SOL    HW116901   4.708   1.324   5.119
 5523SOL    HW216902   4.871   1.321   5.113
 5524SOL     OW16903   5.316   1.629   5.349
 5524SOL    HW116904   5.343   1.663   5.259
 5524SOL    HW216905   5.395   1.591   5.395
 5525SOL     OW16906   4.835   1.195   4.824
 5525SOL    HW116907   4.795   1.239   4.905
 5525SOL    HW216908   4.794   1.232   4.741
 5526SOL     OW16909   4.639   0.089   5.126
 5526SOL    HW116910   4.664   0.069   5.031
 5526SOL    HW216911   4.711   0.145   5.168
 5527SOL     OW16912   4.704   1.116   5.443
 5527SOL    HW116913   4.605   1.122   5.453
 5527SOL    HW216914   4.727   1.036   5.387
 5528SOL     OW16915   4.429   1.050   4.092
 5528SOL    HW116916   4.415   1.057   4.191
 5528SOL    HW216917   4.513   0.999   4.074
 5529SOL     OW16918   4.134   0.813   4.975
 5529SOL    HW116919   4.220   0.825   5.025
 5529SOL    HW216920   4.092   0.726   5.002
 5530SOL     OW16921   4.998   0.386   4.986
 5530SOL    HW116922   5.019   0.460   5.050
 5530SOL    HW216923   4.909   0.403   4.943
 5531SOL     OW16924   3.788   1.564   5.055
 5531SOL    HW116925   3.742   1.646   5.021
 5531SOL    HW216926   3.886   1.583   5.064
 5532SOL     OW16927   4.091   1.100   4.225
 5532SOL    HW116928   4.084   1.183   4.169
 5532SOL    HW216929   4.095   1.020   4.165
 5533SOL     OW16930   4.290   0.537   4.589
 5533SOL    HW116931   4.302   0.603   4.515
 5533SOL    HW216932   4.336   0.571   4.672
 5534SOL     OW16933   4.976   1.348   4.112
 5534SOL    HW116934   5.026   1.425   4.152
 5534SOL    HW216935   4.881   1.350   4.144
 5535SOL     OW16936   4.996   1.445   4.866
 5535SOL    HW116937   5.043   1.458   4.953
 5535SOL    HW216938   4.930   1.371   4.875
 5536SOL     OW16939   4.078   1.510   5.053
 5536SOL    HW116940   4.057   1.466   4.966
 5536SOL    HW216941   4.175   1.536   5.056
 5537SOL     OW16942   4.126   0.751   5.322
 5537SOL    HW116943   4.194   0.806   5.275
 5537SOL    HW216944   4.166   0.663   5.349
 5538SOL     OW16945   4.737   0.105   5.494
 5538SOL    HW116946   4.743   0.190   5.442
 5538SOL    HW216947   4.769   0.029   5.437
 5539SOL     OW16948   4.228   0.050   5.464
 5539SOL    HW116949   4.186  -0.007   5.394
 5539SOL    HW216950   4.162   0.119   5.496
 5540SOL     OW16951   4.297   0.870   4.753
 5540SOL    HW116952   4.341   0.959   4.744
 5540SOL    HW216953   4.234   0.870   4.830
 5541SOL     OW16954   5.084   0.862   4.769
 5541SOL    HW116955   5.009   0.862   4.703
 5541SOL    HW216956   5.121   0.770   4.778
 5542SOL     OW16957   4.933   0.525   3.999
 5542SOL    HW116958   4.946   0.441   4.053
 5542SOL    HW216959   4.904   0.599   4.059
 5543SOL     OW16960   4.031   0.213   4.955
 5543SOL    HW116961   4.008   0.250   5.045
 5543SOL    HW216962   4.001   0.118   4.949
 5544SOL     OW16963   3.761   1.310   5.006
 5544SOL    HW116964   3.814   1.261   5.074
 5544SOL    HW216965   3.783   1.408   5.011
 5545SOL     OW16966   4.456   0.634   4.788
 5545SOL    HW116967   4.515   0.608   4.712
 5545SOL    HW216968   4.428   0.730   4.777
 5546SOL     OW16969   4.031   0.063   4.342
 5546SOL    HW116970   4.020   0.157   4.375
 5546SOL    HW216971   4.026   0.000   4.419
 5547SOL     OW16972   5.346   0.367   4.098
 5547SOL    HW116973   5.348   0.291   4.162
 5547SOL    HW216974   5.298   0.444   4.138
 5548SOL     OW16975   4.747   0.766   4.690
 5548SOL    HW116976   4.762   0.787   4.786
 5548SOL    HW216977   4.717   0.671   4.681
 5549SOL     OW16978   4.704   1.573   5.424
 5549SOL    HW116979   4.684   1.617   5.336
 5549SOL    HW216980   4.743   1.482   5.408
 5550SOL     OW16981   4.074   0.898   5.528
 5550SOL    HW116982   4.150   0.942   5.576
 5550SOL    HW216983   4.109   0.851   5.446
 5551SOL     OW16984   5.027   0.838   3.766
 5551SOL    HW116985   5.061   0.745   3.781
 5551SOL    HW216986   5.045   0.865   3.671
 5552SOL     OW16987   4.792   1.333   4.573
 5552SOL    HW116988   4.799   1.249   4.518
 5552SOL    HW216989   4.854   1.402   4.537
 5553SOL     OW16990   4.043   0.810   4.673
 5553SOL    HW116991   4.136   0.846   4.678
 5553SOL    HW216992   4.037   0.725   4.725
 5554SOL     OW16993   4.063   0.509   4.730
 5554SOL    HW116994   4.011   0.426   4.713
 5554SOL    HW216995   4.140   0.514   4.666
 5555SOL     OW16996   4.862   0.380   5.402
 5555SOL    HW116997   4.817   0.443   5.466
 5555SOL    HW216998   4.955   0.411   5.385
 5556SOL     OW16999   4.884   0.207   5.201
 5556SOL    HW117000   4.884   0.271   5.278
 5556SOL    HW217001   4.912   0.255   5.118
 5557SOL     OW17002   3.732   1.326   3.924
 5557SOL    HW117003   3.639   1.347   3.893
 5557SOL    HW217004   3.742   1.227   3.937
 5558SOL     OW17005   3.812   1.801   4.651
 5558SOL    HW117006   3.770   1.715   4.624
 5558SOL    HW217007   3.906   1.804   4.617
 5559SOL     OW17008   4.228   1.568   4.634
 5559SOL    HW117009   4.294   1.642   4.643
 5559SOL    HW217010   4.272   1.489   4.592
 5560SOL     OW17011   4.726   0.796   4.962
 5560SOL    HW117012   4.767   0.764   5.048
 5560SOL    HW217013   4.630   0.769   4.959
 5561SOL     OW17014   3.764   0.544   4.838
 5561SOL    HW117015   3.849   0.511   4.797
 5561SOL    HW217016   3.777   0.559   4.936
 5562SOL     OW17017   3.913   0.520   5.446
 5562SOL    HW117018   3.972   0.480   5.376
 5562SOL    HW217019   3.855   0.591   5.405
 5563SOL     OW17020   5.093   0.950   5.384
 5563SOL    HW117021   5.132   1.039   5.404
 5563SOL    HW217022   5.103   0.930   5.287
 5564SOL     OW17023   4.539   0.572   4.049
 5564SOL    HW117024   4.546   0.483   4.003
 5564SOL    HW217025   4.445   0.606   4.041
 5565SOL     OW17026   3.976   1.564   5.468
 5565SOL    HW117027   3.946   1.621   5.544
 5565SOL    HW217028   3.969   1.467   5.494
 5566SOL     OW17029   4.395   0.464   4.993
 5566SOL    HW117030   4.361   0.375   4.963
 5566SOL    HW217031   4.421   0.518   4.913
 5567SOL     OW17032   4.654   1.678   5.189
 5567SOL    HW117033   4.630   1.660   5.094
 5567SOL    HW217034   4.684   1.772   5.199
 5568SOL     OW17035   4.197   0.500   3.915
 5568SOL    HW117036   4.258   0.580   3.919
 5568SOL    HW217037   4.102   0.531   3.922
 5569SOL     OW17038   3.883   1.137   5.190
 5569SOL    HW117039   3.905   1.076   5.266
 5569SOL    HW217040   3.893   1.088   5.104
 5570SOL     OW17041   5.071   1.059   4.958
 5570SOL    HW117042   5.095   0.996   4.884
 5570SOL    HW217043   4.981   1.099   4.940
 5571SOL     OW17044   5.026   0.855   4.033
 5571SOL    HW117045   4.940   0.824   4.075
 5571SOL    HW217046   5.022   0.841   3.934
 5572SOL     OW17047   4.976   1.731   4.852
 5572SOL    HW117048   5.060   1.736   4.798
 5572SOL    HW217049   4.953   1.635   4.870
 5573SOL     OW17050   3.807   1.258   4.746
 5573SOL    HW117051   3.802   1.257   4.846
 5573SOL    HW217052   3.724   1.217   4.708
 5574SOL     OW17053   4.412   1.662   5.440
 5574SOL    HW117054   4.356   1.743   5.449
 5574SOL    HW217055   4.464   1.666   5.354
 5575SOL     OW17056   5.112   1.573   4.201
 5575SOL    HW117057   5.179   1.585   4.127
 5575SOL    HW217058   5.072   1.662   4.224
 5576SOL     OW17059   3.854   1.794   5.575
 5576SOL    HW117060   3.813   1.720   5.628
 5576SOL    HW217061   3.918   1.845   5.633
 5577SOL     OW17062   5.004   0.927   4.396
 5577SOL    HW117063   5.064   0.846   4.398
 5577SOL    HW217064   5.044   0.996   4.336
 5578SOL     OW17065   4.554   1.273   5.146
 5578SOL    HW117066   4.549   1.306   5.241
 5578SOL    HW217067   4.468   1.292   5.100
 5579SOL     OW17068   4.396   1.616   3.878
 5579SOL    HW117069   4.405   1.626   3.779
 5579SOL    HW217070   4.356   1.527   3.899
 5580SOL     OW17071   3.987   0.326   4.444
 5580SOL    HW117072   3.908   0.377   4.410
 5580SOL    HW217073   3.978   0.311   4.542
 5581SOL     OW17074   4.918   1.612   3.755
 5581SOL    HW117075   4.924   1.519   3.792
 5581SOL    HW217076   4.859   1.612   3.675
 5582SOL     OW17077   4.546   1.002   5.096
 5582SOL    HW117078   4.586   1.001   5.004
 5582SOL    HW217079   4.556   1.094   5.136
 5583SOL     OW17080   4.640   0.910   4.015
 5583SOL    HW117081   4.703   0.948   3.947
 5583SOL    HW217082   4.680   0.827   4.054
 5584SOL     OW17083   4.096   1.288   5.214
 5584SOL    HW117084   4.083   1.381   5.180
 5584SOL    HW217085   4.012   1.236   5.201
 5585SOL     OW17086   4.763   1.098   4.420
 5585SOL    HW117087   4.693   1.051   4.474
 5585SOL    HW217088   4.822   1.030   4.377
 5586SOL     OW17089   4.738   0.236   4.695
 5586SOL    HW117090   4.730   0.200   4.602
 5586SOL    HW217091   4.736   0.160   4.760
 5587SOL     OW17092   4.314   1.487   4.215
 5587SOL    HW117093   4.356   1.429   4.145
 5587SOL    HW217094   4.270   1.566   4.171
 5588SOL     OW17095   3.979   1.348   4.014
 5588SOL    HW117096   3.883   1.349   3.987
 5588SOL    HW217097   3.991   1.401   4.098
 5589SOL     OW17098   3.829   1.013   5.450
 5589SOL    HW117099   3.752   0.980   5.504
 5589SOL    HW217100   3.914   0.983   5.492
 5590SOL     OW17101   4.396   0.203   5.213
 5590SOL    HW117102   4.486   0.187   5.173
 5590SOL    HW217103   4.404   0.208   5.312
 5591SOL     OW17104   3.799   0.345   3.757
 5591SOL    HW117105   3.707   0.317   3.728
 5591SOL    HW217106   3.830   0.422   3.701
 5592SOL     OW17107   5.164   0.856   5.122
 5592SOL    HW117108   5.107   0.908   5.059
 5592SOL    HW217109   5.260   0.868   5.098
 5593SOL     OW17110   3.796   0.166   4.042
 5593SOL    HW117111   3.779   0.249   3.988
 5593SOL    HW217112   3.886   0.129   4.020
 5594SOL     OW17113   4.907   1.335   3.843
 5594SOL    HW117114   4.808   1.324   3.845
 5594SOL    HW217115   4.941   1.350   3.936
 5595SOL     OW17116   4.337   0.842   5.155
 5595SOL    HW117117   4.393   0.923   5.138
 5595SOL    HW217118   4.396   0.762   5.158
 5596SOL     OW17119   4.440   0.565   5.432
 5596SOL    HW117120   4.459   0.630   5.506
 5596SOL    HW217121   4.500   0.485   5.441
 5597SOL     OW17122   5.174   1.220   5.357
 5597SOL    HW117123   5.165   1.210   5.456
 5597SOL    HW217124   5.270   1.213   5.331
 5598SOL     OW17125   4.114   1.741   5.284
 5598SOL    HW117126   4.023   1.782   5.282
 5598SOL    HW217127   4.107   1.647   5.316
 5599SOL     OW17128   4.949   0.325   4.173
 5599SOL    HW117129   5.014   0.251   4.162
 5599SOL    HW217130   4.969   0.375   4.257
 5600SOL     OW17131   4.318   0.745   4.376
 5600SOL    HW117132   4.368   0.830   4.357
 5600SOL    HW217133   4.230   0.747   4.328
 5601SOL     OW17134   4.583   1.374   3.740
 5601SOL    HW117135   4.537   1.389   3.828
 5601SOL    HW217136   4.627   1.459   3.710
 5602SOL     OW17137   4.385   1.790   4.677
 5602SOL    HW117138   4.339   1.878   4.664
 5602SOL    HW217139   4.484   1.802   4.670
 5603SOL     OW17140   4.583   0.956   4.585
 5603SOL    HW117141   4.637   0.887   4.633
 5603SOL    HW217142   4.551   1.025   4.651
 5604SOL     OW17143   4.807   0.984   3.811
 5604SOL    HW117144   4.784   1.037   3.729
 5604SOL    HW217145   4.888   0.928   3.792
 5605SOL     OW17146   3.945   1.314   5.568
 5605SOL    HW117147   3.880   1.241   5.547
 5605SOL    HW217148   3.949   1.328   5.666
 5606SOL     OW17149   3.803   1.240   4.377
 5606SOL    HW117150   3.802   1.193   4.465
 5606SOL    HW217151   3.885   1.212   4.326
 5607SOL     OW17152   4.396   1.391   5.348
 5607SOL    HW117153   4.318   1.341   5.386
 5607SOL    HW217154   4.393   1.486   5.379
 5608SOL     OW17155   4.152   0.424   4.244
 5608SOL    HW117156   4.182   0.352   4.182
 5608SOL    HW217157   4.113   0.384   4.327
 5609SOL     OW17158   5.429   1.487   4.828
 5609SOL    HW117159   5.336   1.462   4.801
 5609SOL    HW217160   5.455   1.437   4.910
 5610SOL     OW17161   4.041   0.547   5.004
 5610SOL    HW117162   4.079   0.488   5.076
 5610SOL    HW217163   4.081   0.521   4.916
 5611SOL     OW17164   4.536   1.586   4.411
 5611SOL    HW117165   4.568   1.596   4.317
 5611SOL    HW217166   4.457   1.524   4.413
 5612SOL     OW17167   5.148   0.214   4.836
 5612SOL    HW117168   5.200   0.149   4.891
 5612SOL    HW217169   5.099   0.277   4.897
 5613SOL     OW17170   4.725   0.034   4.878
 5613SOL    HW117171   4.662  -0.038   4.847
 5613SOL    HW217172   4.818  -0.002   4.878
 5614SOL     OW17173   4.494   1.330   4.025
 5614SOL    HW117174   4.448   1.243   4.042
 5614SOL    HW217175   4.585   1.327   4.066
 5615SOL     OW17176   4.342   1.567   5.008
 5615SOL    HW117177   4.337   1.649   5.065
 5615SOL    HW217178   4.431   1.564   4.963
 5616SOL     OW17179   5.076   0.052   3.892
 5616SOL    HW117180   5.111   0.011   3.808
 5616SOL    HW217181   4.986   0.014   3.912
 5617SOL     OW17182   5.024   0.453   4.415
 5617SOL    HW117183   4.965   0.533   4.419
 5617SOL    HW217184   5.039   0.418   4.508
 5618SOL     OW17185   5.317   0.221   4.606
 5618SOL    HW117186   5.233   0.220   4.660
 5618SOL    HW217187   5.319   0.304   4.550
 5619SOL     OW17188   3.763   1.077   4.024
 5619SOL    HW117189   3.862   1.066   4.015
 5619SOL    HW217190   3.723   0.991   4.056
 5620SOL     OW17191   4.599   1.646   4.061
 5620SOL    HW117192   4.522   1.611   4.007
 5620SOL    HW217193   4.567   1.717   4.123
 5621SOL     OW17194   3.954   0.628   5.699
 5621SOL    HW117195   3.861   0.626   5.736
 5621SOL    HW217196   3.955   0.589   5.607
 5622SOL     OW17197   3.949   0.275   6.582
 5622SOL    HW117198   3.984   0.258   6.674
 5622SOL    HW217199   3.861   0.230   6.570
 5623SOL     OW17200   3.743   0.368   6.233
 5623SOL    HW117201   3.661   0.411   6.272
 5623SOL    HW217202   3.715   0.295   6.170
 5624SOL     OW17203   4.293   1.275   6.751
 5624SOL    HW117204   4.200   1.268   6.714
 5624SOL    HW217205   4.304   1.364   6.795
 5625SOL     OW17206   5.279   1.511   6.289
 5625SOL    HW117207   5.222   1.495   6.370
 5625SOL    HW217208   5.220   1.521   6.209
 5626SOL     OW17209   4.859   0.703   6.303
 5626SOL    HW117210   4.916   0.781   6.278
 5626SOL    HW217211   4.799   0.729   6.379
 5627SOL     OW17212   4.492   1.144   6.609
 5627SOL    HW117213   4.414   1.161   6.669
 5627SOL    HW217214   4.526   1.231   6.573
 5628SOL     OW17215   4.574   0.798   7.409
 5628SOL    HW117216   4.570   0.874   7.474
 5628SOL    HW217217   4.596   0.834   7.318
 5629SOL     OW17218   4.409   1.012   6.251
 5629SOL    HW117219   4.478   0.996   6.321
 5629SOL    HW217220   4.336   1.069   6.289
 5630SOL     OW17221   4.410   1.161   7.389
 5630SOL    HW117222   4.470   1.240   7.403
 5630SOL    HW217223   4.324   1.192   7.348
 5631SOL     OW17224   4.059   1.435   6.647
 5631SOL    HW117225   3.981   1.404   6.594
 5631SOL    HW217226   4.117   1.493   6.590
 5632SOL     OW17227   5.184   1.505   6.925
 5632SOL    HW117228   5.208   1.599   6.951
 5632SOL    HW217229   5.168   1.451   7.007
 5633SOL     OW17230   4.162   0.392   7.085
 5633SOL    HW117231   4.244   0.336   7.094
 5633SOL    HW217232   4.081   0.334   7.089
 5634SOL     OW17233   3.955   1.713   6.069
 5634SOL    HW117234   3.989   1.790   6.123
 5634SOL    HW217235   3.999   1.713   5.979
 5635SOL     OW17236   4.851   1.341   7.276
 5635SOL    HW117237   4.898   1.341   7.364
 5635SOL    HW217238   4.803   1.254   7.265
 5636SOL     OW17239   3.954   1.434   6.124
 5636SOL    HW117240   3.928   1.530   6.124
 5636SOL    HW217241   3.883   1.380   6.169
 5637SOL     OW17242   3.964   1.091   6.472
 5637SOL    HW117243   3.978   1.007   6.524
 5637SOL    HW217244   3.909   1.155   6.527
 5638SOL     OW17245   4.344   1.786   7.025
 5638SOL    HW117246   4.252   1.769   7.060
 5638SOL    HW217247   4.372   1.878   7.051
 5639SOL     OW17248   4.330   0.964   5.709
 5639SOL    HW117249   4.337   1.048   5.655
 5639SOL    HW217250   4.376   0.977   5.797
 5640SOL     OW17251   5.318   0.114   7.066
 5640SOL    HW117252   5.300   0.181   6.994
 5640SOL    HW217253   5.315   0.160   7.155
 5641SOL     OW17254   3.846   0.643   6.149
 5641SOL    HW117255   3.801   0.555   6.166
 5641SOL    HW217256   3.845   0.697   6.233
 5642SOL     OW17257   3.751   1.596   5.703
 5642SOL    HW117258   3.732   1.500   5.724
 5642SOL    HW217259   3.718   1.654   5.778
 5643SOL     OW17260   5.413   0.922   6.198
 5643SOL    HW117261   5.508   0.893   6.206
 5643SOL    HW217262   5.405   0.987   6.123
 5644SOL     OW17263   3.837   0.737   7.183
 5644SOL    HW117264   3.925   0.724   7.228
 5644SOL    HW217265   3.824   0.834   7.161
 5645SOL     OW17266   4.337   1.365   6.312
 5645SOL    HW117267   4.288   1.278   6.321
 5645SOL    HW217268   4.314   1.408   6.225
 5646SOL     OW17269   5.017   1.228   7.009
 5646SOL    HW117270   5.054   1.155   6.951
 5646SOL    HW217271   5.069   1.233   7.094
 5647SOL     OW17272   4.533   0.004   6.088
 5647SOL    HW117273   4.573   0.095   6.079
 5647SOL    HW217274   4.433   0.012   6.094
 5648SOL     OW17275   3.921   0.976   6.850
 5648SOL    HW117276   4.010   0.931   6.836
 5648SOL    HW217277   3.848   0.911   6.831
 5649SOL     OW17278   4.911   1.792   7.202
 5649SOL    HW117279   4.935   1.852   7.126
 5649SOL    HW217280   4.918   1.697   7.172
 5650SOL     OW17281   4.041   0.251   7.387
 5650SOL    HW117282   4.112   0.322   7.393
 5650SOL    HW217283   3.953   0.290   7.415
 5651SOL     OW17284   5.190   1.417   6.539
 5651SOL    HW117285   5.131   1.423   6.619
 5651SOL    HW217286   5.175   1.329   6.493
 5652SOL     OW17287   4.322   0.729   5.856
 5652SOL    HW117288   4.346   0.798   5.788
 5652SOL    HW217289   4.244   0.762   5.910
 5653SOL     OW17290   5.005   0.345   6.530
 5653SOL    HW117291   4.919   0.295   6.517
 5653SOL    HW217292   5.067   0.291   6.586
 5654SOL     OW17293   4.531   0.605   7.051
 5654SOL    HW117294   4.484   0.602   7.140
 5654SOL    HW217295   4.480   0.550   6.985
 5655SOL     OW17296   5.118   0.469   7.260
 5655SOL    HW117297   5.098   0.512   7.348
 5655SOL    HW217298   5.196   0.407   7.269
 5656SOL     OW17299   4.697   0.890   7.158
 5656SOL    HW117300   4.743   0.806   7.129
 5656SOL    HW217301   4.641   0.924   7.083
 5657SOL     OW17302   4.715   0.410   6.828
 5657SOL    HW117303   4.638   0.444   6.882
 5657SOL    HW217304   4.681   0.359   6.749
 5658SOL     OW17305   4.765   0.701   6.015
 5658SOL    HW117306   4.791   0.697   6.111
 5658SOL    HW217307   4.680   0.650   6.001
 5659SOL     OW17308   3.800   0.811   6.375
 5659SOL    HW117309   3.899   0.799   6.384
 5659SOL    HW217310   3.776   0.906   6.396
 5660SOL     OW17311   3.854   1.821   7.157
 5660SOL    HW117312   3.844   1.806   7.256
 5660SOL    HW217313   3.768   1.857   7.121
 5661SOL     OW17314   4.589   0.348   5.781
 5661SOL    HW117315   4.648   0.411   5.732
 5661SOL    HW217316   4.608   0.254   5.752
 5662SOL     OW17317   5.086   1.144   6.131
 5662SOL    HW117318   5.169   1.115   6.083
 5662SOL    HW217319   5.037   1.211   6.075
 5663SOL     OW17320   4.274   0.196   6.471
 5663SOL    HW117321   4.269   0.191   6.571
 5663SOL    HW217322   4.276   0.292   6.442
 5664SOL     OW17323   4.732   1.456   6.063
 5664SOL    HW117324   4.686   1.528   6.011
 5664SOL    HW217325   4.728   1.476   6.161
 5665SOL     OW17326   4.075   1.801   6.439
 5665SOL    HW117327   4.125   1.715   6.445
 5665SOL    HW217328   4.140   1.878   6.436
 5666SOL     OW17329   4.951   1.550   7.092
 5666SOL    HW117330   4.957   1.473   7.156
 5666SOL    HW217331   4.899   1.524   7.012
 5667SOL     OW17332   4.045   0.943   5.828
 5667SOL    HW117333   4.127   0.982   5.786
 5667SOL    HW217334   4.018   0.861   5.779
 5668SOL     OW17335   4.185   1.266   7.313
 5668SOL    HW117336   4.135   1.267   7.227
 5668SOL    HW217337   4.122   1.248   7.389
 5669SOL     OW17338   4.835   1.776   5.823
 5669SOL    HW117339   4.775   1.714   5.873
 5669SOL    HW217340   4.866   1.732   5.738
 5670SOL     OW17341   3.926   0.285   7.084
 5670SOL    HW117342   3.846   0.345   7.071
 5670SOL    HW217343   3.916   0.236   7.170
 5671SOL     OW17344   4.188   1.743   5.909
 5671SOL    HW117345   4.221   1.782   5.995
 5671SOL    HW217346   4.264   1.736   5.844
 5672SOL     OW17347   5.124   0.107   6.012
 5672SOL    HW117348   5.100   0.070   5.922
 5672SOL    HW217349   5.223   0.123   6.016
 5673SOL     OW17350   3.973   1.785   6.827
 5673SOL    HW117351   4.030   1.720   6.877
 5673SOL    HW217352   3.957   1.752   6.734
 5674SOL     OW17353   4.664   1.698   6.490
 5674SOL    HW117354   4.744   1.641   6.511
 5674SOL    HW217355   4.615   1.658   6.413
 5675SOL     OW17356   4.106   0.700   6.066
 5675SOL    HW117357   4.151   0.610   6.063
 5675SOL    HW217358   4.012   0.689   6.099
 5676SOL     OW17359   4.338   0.122   5.703
 5676SOL    HW117360   4.436   0.100   5.710
 5676SOL    HW217361   4.307   0.105   5.610
 5677SOL     OW17362   4.505   0.264   7.335
 5677SOL    HW117363   4.572   0.203   7.378
 5677SOL    HW217364   4.432   0.283   7.400
 5678SOL     OW17365   4.612   1.514   6.781
 5678SOL    HW117366   4.589   1.489   6.687
 5678SOL    HW217367   4.673   1.445   6.820
 5679SOL     OW17368   5.075   0.590   7.019
 5679SOL    HW117369   5.103   0.547   7.104
 5679SOL    HW217370   5.100   0.686   7.020
 5680SOL     OW17371   4.527   1.402   6.510
 5680SOL    HW117372   4.617   1.416   6.468
 5680SOL    HW217373   4.456   1.404   6.439
 5681SOL     OW17374   4.646   0.503   6.485
 5681SOL    HW117375   4.621   0.494   6.389
 5681SOL    HW217376   4.694   0.421   6.516
 5682SOL     OW17377   4.263   0.064   6.098
 5682SOL    HW117378   4.182   0.065   6.156
 5682SOL    HW217379   4.266   0.147   6.043
 5683SOL     OW17380   5.158   1.188   5.627
 5683SOL    HW117381   5.190   1.112   5.684
 5683SOL    HW217382   5.066   1.215   5.657
 5684SOL     OW17383   4.021   0.035   5.757
 5684SOL    HW117384   4.070   0.119   5.736
 5684SOL    HW217385   4.083  -0.030   5.802
 5685SOL     OW17386   4.659   0.236   6.066
 5685SOL    HW117387   4.611   0.277   5.988
 5685SOL    HW217388   4.758   0.234   6.047
 5686SOL     OW17389   4.800   0.683   7.050
 5686SOL    HW117390   4.720   0.622   7.053
 5686SOL    HW217391   4.881   0.630   7.026
 5687SOL     OW17392   4.951   1.570   6.379
 5687SOL    HW117393   4.972   1.644   6.314
 5687SOL    HW217394   5.019   1.570   6.452
 5688SOL     OW17395   4.183   1.152   6.327
 5688SOL    HW117396   4.112   1.125   6.392
 5688SOL    HW217397   4.157   1.124   6.234
 5689SOL     OW17398   4.995   1.797   6.177
 5689SOL    HW117399   5.039   1.861   6.113
 5689SOL    HW217400   4.945   1.849   6.247
 5690SOL     OW17401   4.756   0.549   5.602
 5690SOL    HW117402   4.715   0.631   5.563
 5690SOL    HW217403   4.820   0.575   5.675
 5691SOL     OW17404   3.802   0.556   6.972
 5691SOL    HW117405   3.894   0.555   6.931
 5691SOL    HW217406   3.796   0.630   7.039
 5692SOL     OW17407   4.285   0.222   6.733
 5692SOL    HW117408   4.323   0.138   6.770
 5692SOL    HW217409   4.197   0.241   6.777
 5693SOL     OW17410   4.590   0.454   6.228
 5693SOL    HW117411   4.558   0.526   6.166
 5693SOL    HW217412   4.614   0.373   6.175
 5694SOL     OW17413   4.741   0.039   6.339
 5694SOL    HW117414   4.669   0.044   6.270
 5694SOL    HW217415   4.717  -0.030   6.408
 5695SOL     OW17416   5.153   1.173   6.453
 5695SOL    HW117417   5.098   1.089   6.446
 5695SOL    HW217418   5.179   1.202   6.361
 5696SOL     OW17419   4.212   1.385   5.760
 5696SOL    HW117420   4.125   1.370   5.807
 5696SOL    HW217421   4.195   1.411   5.665
 5697SOL     OW17422   5.114   0.575   5.664
 5697SOL    HW117423   5.060   0.554   5.745
 5697SOL    HW217424   5.205   0.534   5.673
 5698SOL     OW17425   4.251   0.256   5.914
 5698SOL    HW117426   4.278   0.197   5.839
 5698SOL    HW217427   4.251   0.351   5.883
 5699SOL     OW17428   4.788   1.347   6.926
 5699SOL    HW117429   4.708   1.324   6.981
 5699SOL    HW217430   4.871   1.321   6.975
 5700SOL     OW17431   5.316   1.629   7.211
 5700SOL    HW117432   5.343   1.663   7.121
 5700SOL    HW217433   5.395   1.591   7.257
 5701SOL     OW17434   4.835   1.195   6.686
 5701SOL    HW117435   4.795   1.239   6.767
 5701SOL    HW217436   4.794   1.232   6.603
 5702SOL     OW17437   4.639   0.089   6.988
 5702SOL    HW117438   4.664   0.069   6.893
 5702SOL    HW217439   4.711   0.145   7.030
 5703SOL     OW17440   4.704   1.116   7.305
 5703SOL    HW117441   4.605   1.122   7.315
 5703SOL    HW217442   4.727   1.036   7.249
 5704SOL     OW17443   4.429   1.050   5.954
 5704SOL    HW117444   4.415   1.057   6.053
 5704SOL    HW217445   4.513   0.999   5.936
 5705SOL     OW17446   4.134   0.813   6.837
 5705SOL    HW117447   4.220   0.825   6.887
 5705SOL    HW217448   4.092   0.726   6.864
 5706SOL     OW17449   4.998   0.386   6.848
 5706SOL    HW117450   5.019   0.460   6.912
 5706SOL    HW217451   4.909   0.403   6.805
 5707SOL     OW17452   3.788   1.564   6.917
 5707SOL    HW117453   3.742   1.646   6.883
 5707SOL    HW217454   3.886   1.583   6.926
 5708SOL     OW17455   4.091   1.100   6.087
 5708SOL    HW117456   4.084   1.183   6.031
 5708SOL    HW217457   4.095   1.020   6.027
 5709SOL     OW17458   4.290   0.537   6.451
 5709SOL    HW117459   4.302   0.603   6.377
 5709SOL    HW217460   4.336   0.571   6.534
 5710SOL     OW17461   4.976   1.348   5.974
 5710SOL    HW117462   5.026   1.425   6.014
 5710SOL    HW217463   4.881   1.350   6.006
 5711SOL     OW17464   4.996   1.445   6.728
 5711SOL    HW117465   5.043   1.458   6.815
 5711SOL    HW217466   4.930   1.371   6.737
 5712SOL     OW17467   4.078   1.510   6.915
 5712SOL    HW117468   4.057   1.466   6.828
 5712SOL    HW217469   4.175   1.536   6.918
 5713SOL     OW17470   4.126   0.751   7.184
 5713SOL    HW117471   4.194   0.806   7.137
 5713SOL    HW217472   4.166   0.663   7.211
 5714SOL     OW17473   4.737   0.105   7.356
 5714SOL    HW117474   4.743   0.190   7.304
 5714SOL    HW217475   4.769   0.029   7.299
 5715SOL     OW17476   4.228   0.050   7.326
 5715SOL    HW117477   4.186  -0.007   7.256
 5715SOL    HW217478   4.162   0.119   7.358
 5716SOL     OW17479   4.297   0.870   6.615
 5716SOL    HW117480   4.341   0.959   6.606
 5716SOL    HW217481   4.234   0.870   6.692
 5717SOL     OW17482   5.084   0.862   6.631
 5717SOL    HW117483   5.009   0.862   6.565
 5717SOL    HW217484   5.121   0.770   6.640
 5718SOL     OW17485   4.933   0.525   5.861
 5718SOL    HW117486   4.946   0.441   5.915
 5718SOL    HW217487   4.904   0.599   5.921
 5719SOL     OW17488   4.031   0.213   6.817
 5719SOL    HW117489   4.008   0.250   6.907
 5719SOL    HW217490   4.001   0.118   6.811
 5720SOL     OW17491   3.761   1.310   6.868
 5720SOL    HW117492   3.814   1.261   6.936
 5720SOL    HW217493   3.783   1.408   6.873
 5721SOL     OW17494   4.456   0.634   6.650
 5721SOL    HW117495   4.515   0.608   6.574
 5721SOL    HW217496   4.428   0.730   6.639
 5722SOL     OW17497   4.031   0.063   6.204
 5722SOL    HW117498   4.020   0.157   6.237
 5722SOL    HW217499   4.026   0.000   6.281
 5723SOL     OW17500   5.346   0.367   5.960
 5723SOL    HW117501   5.348   0.291   6.024
 5723SOL    HW217502   5.298   0.444   6.000
 5724SOL     OW17503   4.747   0.766   6.552
 5724SOL    HW117504   4.762   0.787   6.648
 5724SOL    HW217505   4.717   0.671   6.543
 5725SOL     OW17506   4.704   1.573   7.286
 5725SOL    HW117507   4.684   1.617   7.198
 5725SOL    HW217508   4.743   1.482   7.270
 5726SOL     OW17509   4.074   0.898   7.390
 5726SOL    HW117510   4.150   0.942   7.438
 5726SOL    HW217511   4.109   0.851   7.308
 5727SOL     OW17512   5.027   0.838   5.628
 5727SOL    HW117513   5.061   0.745   5.643
 5727SOL    HW217514   5.045   0.865   5.533
 5728SOL     OW17515   4.792   1.333   6.435
 5728SOL    HW117516   4.799   1.249   6.380
 5728SOL    HW217517   4.854   1.402   6.399
 5729SOL     OW17518   4.043   0.810   6.535
 5729SOL    HW117519   4.136   0.846   6.540
 5729SOL    HW217520   4.037   0.725   6.587
 5730SOL     OW17521   4.063   0.509   6.592
 5730SOL    HW117522   4.011   0.426   6.575
 5730SOL    HW217523   4.140   0.514   6.528
 5731SOL     OW17524   4.862   0.380   7.264
 5731SOL    HW117525   4.817   0.443   7.328
 5731SOL    HW217526   4.955   0.411   7.247
 5732SOL     OW17527   4.884   0.207   7.063
 5732SOL    HW117528   4.884   0.271   7.140
 5732SOL    HW217529   4.912   0.255   6.980
 5733SOL     OW17530   3.732   1.326   5.786
 5733SOL    HW117531   3.639   1.347   5.755
 5733SOL    HW217532   3.742   1.227   5.799
 5734SOL     OW17533   3.812   1.801   6.513
 5734SOL    HW117534   3.770   1.715   6.486
 5734SOL    HW217535   3.906   1.804   6.479
 5735SOL     OW17536   4.228   1.568   6.496
 5735SOL    HW117537   4.294   1.642   6.505
 5735SOL    HW217538   4.272   1.489   6.454
 5736SOL     OW17539   4.726   0.796   6.824
 5736SOL    HW117540   4.767   0.764   6.910
 5736SOL    HW217541   4.630   0.769   6.821
 5737SOL     OW17542   3.764   0.544   6.700
 5737SOL    HW117543   3.849   0.511   6.659
 5737SOL    HW217544   3.777   0.559   6.798
 5738SOL     OW17545   3.913   0.520   7.308
 5738SOL    HW117546   3.972   0.480   7.238
 5738SOL    HW217547   3.855   0.591   7.267
 5739SOL     OW17548   5.093   0.950   7.246
 5739SOL    HW117549   5.132   1.039   7.266
 5739SOL    HW217550   5.103   0.930   7.149
 5740SOL     OW17551   4.539   0.572   5.911
 5740SOL    HW117552   4.546   0.483   5.865
 5740SOL    HW217553   4.445   0.606   5.903
 5741SOL     OW17554   3.976   1.564   7.330
 5741SOL    HW117555   3.946   1.621   7.406
 5741SOL    HW217556   3.969   1.467   7.356
 5742SOL     OW17557   4.395   0.464   6.855
 5742SOL    HW117558   4.361   0.375   6.825
 5742SOL    HW217559   4.421   0.518   6.775
 5743SOL     OW17560   4.654   1.678   7.051
 5743SOL    HW117561   4.630   1.660   6.956
 5743SOL    HW217562   4.684   1.772   7.061
 5744SOL     OW17563   4.197   0.500   5.777
 5744SOL    HW117564   4.258   0.580   5.781
 5744SOL    HW217565   4.102   0.531   5.784
 5745SOL     OW17566   3.883   1.137   7.052
 5745SOL    HW117567   3.905   1.076   7.128
 5745SOL    HW217568   3.893   1.088   6.966
 5746SOL     OW17569   5.071   1.059   6.820
 5746SOL    HW117570   5.095   0.996   6.746
 5746SOL    HW217571   4.981   1.099   6.802
 5747SOL     OW17572   5.026   0.855   5.895
 5747SOL    HW117573   4.940   0.824   5.937
 5747SOL    HW217574   5.022   0.841   5.796
 5748SOL     OW17575   4.976   1.731   6.714
 5748SOL    HW117576   5.060   1.736   6.660
 5748SOL    HW217577   4.953   1.635   6.732
 5749SOL     OW17578   3.807   1.258   6.608
 5749SOL    HW117579   3.802   1.257   6.708
 5749SOL    HW217580   3.724   1.217   6.570
 5750SOL     OW17581   4.412   1.662   7.302
 5750SOL    HW117582   4.356   1.743   7.311
 5750SOL    HW217583   4.464   1.666   7.216
 5751SOL     OW17584   5.112   1.573   6.063
 5751SOL    HW117585   5.179   1.585   5.989
 5751SOL    HW217586   5.072   1.662   6.086
 5752SOL     OW17587   3.854   1.794   7.437
 5752SOL    HW117588   3.813   1.720   7.490
 5752SOL    HW217589   3.918   1.845   7.495
 5753SOL     OW17590   5.004   0.927   6.258
 5753SOL    HW117591   5.064   0.846   6.260
 5753SOL    HW217592   5.044   0.996   6.198
 5754SOL     OW17593   4.554   1.273   7.008
 5754SOL    HW117594   4.549   1.306   7.103
 5754SOL    HW217595   4.468   1.292   6.962
 5755SOL     OW17596   4.396   1.616   5.740
 5755SOL    HW117597   4.405   1.626   5.641
 5755SOL    HW217598   4.356   1.527   5.761
 5756SOL     OW17599   3.987   0.326   6.306
 5756SOL    HW117600   3.908   0.377   6.272
 5756SOL    HW217601   3.978   0.311   6.404
 5757SOL     OW17602   4.918   1.612   5.617
 5757SOL    HW117603   4.924   1.519   5.654
 5757SOL    HW217604   4.859   1.612   5.537
 5758SOL     OW17605   4.546   1.002   6.958
 5758SOL    HW117606   4.586   1.001   6.866
 5758SOL    HW217607   4.556   1.094   6.998
 5759SOL     OW17608   4.640   0.910   5.877
 5759SOL    HW117609   4.703   0.948   5.809
 5759SOL    HW217610   4.680   0.827   5.916
 5760SOL     OW17611   4.096   1.288   7.076
 5760SOL    HW117612   4.083   1.381   7.042
 5760SOL    HW217613   4.012   1.236   7.063
 5761SOL     OW17614   4.763   1.098   6.282
 5761SOL    HW117615   4.693   1.051   6.336
 5761SOL    HW217616   4.822   1.030   6.239
 5762SOL     OW17617   4.738   0.236   6.557
 5762SOL    HW117618   4.730   0.200   6.464
 5762SOL    HW217619   4.736   0.160   6.622
 5763SOL     OW17620   4.314   1.487   6.077
 5763SOL    HW117621   4.356   1.429   6.007
 5763SOL    HW217622   4.270   1.566   6.033
 5764SOL     OW17623   3.979   1.348   5.876
 5764SOL    HW117624   3.883   1.349   5.849
 5764SOL    HW217625   3.991   1.401   5.960
 5765SOL     OW17626   3.829   1.013   7.312
 5765SOL    HW117627   3.752   0.980   7.366
 5765SOL    HW217628   3.914   0.983   7.354
 5766SOL     OW17629   4.396   0.203   7.075
 5766SOL    HW117630   4.486   0.187   7.035
 5766SOL    HW217631   4.404   0.208   7.174
 5767SOL     OW17632   3.799   0.345   5.619
 5767SOL    HW117633   3.707   0.317   5.590
 5767SOL    HW217634   3.830   0.422   5.563
 5768SOL     OW17635   5.164   0.856   6.984
 5768SOL    HW117636   5.107   0.908   6.921
 5768SOL    HW217637   5.260   0.868   6.960
 5769SOL     OW17638   3.796   0.166   5.904
 5769SOL    HW117639   3.779   0.249   5.850
 5769SOL    HW217640   3.886   0.129   5.882
 5770SOL     OW17641   4.907   1.335   5.705
 5770SOL    HW117642   4.808   1.324   5.707
 5770SOL    HW217643   4.941   1.350   5.798
 5771SOL     OW17644   4.337   0.842   7.017
 5771SOL    HW117645   4.393   0.923   7.000
 5771SOL    HW217646   4.396   0.762   7.020
 5772SOL     OW17647   4.440   0.565   7.294
 5772SOL    HW117648   4.459   0.630   7.368
 5772SOL    HW217649   4.500   0.485   7.303
 5773SOL     OW17650   5.174   1.220   7.219
 5773SOL    HW117651   5.165   1.210   7.318
 5773SOL    HW217652   5.270   1.213   7.193
 5774SOL     OW17653   4.114   1.741   7.146
 5774SOL    HW117654   4.023   1.782   7.144
 5774SOL    HW217655   4.107   1.647   7.178
 5775SOL     OW17656   4.949   0.325   6.035
 5775SOL    HW117657   5.014   0.251   6.024
 5775SOL    HW217658   4.969   0.375   6.119
 5776SOL     OW17659   4.318   0.745   6.238
 5776SOL    HW117660   4.368   0.830   6.219
 5776SOL    HW217661   4.230   0.747   6.190
 5777SOL     OW17662   4.583   1.374   5.602
 5777SOL    HW117663   4.537   1.389   5.690
 5777SOL    HW217664   4.627   1.459   5.572
 5778SOL     OW17665   4.385   1.790   6.539
 5778SOL    HW117666   4.339   1.878   6.526
 5778SOL    HW217667   4.484   1.802   6.532
 5779SOL     OW17668   4.583   0.956   6.447
 5779SOL    HW117669   4.637   0.887   6.495
 5779SOL    HW217670   4.551   1.025   6.513
 5780SOL     OW17671   4.807   0.984   5.673
 5780SOL    HW117672   4.784   1.037   5.591
 5780SOL    HW217673   4.888   0.928   5.654
 5781SOL     OW17674   3.945   1.314   7.430
 5781SOL    HW117675   3.880   1.241   7.409
 5781SOL    HW217676   3.949   1.328   7.528
 5782SOL     OW17677   3.803   1.240   6.239
 5782SOL    HW117678   3.802   1.193   6.327
 5782SOL    HW217679   3.885   1.212   6.188
 5783SOL     OW17680   4.396   1.391   7.210
 5783SOL    HW117681   4.318   1.341   7.248
 5783SOL    HW217682   4.393   1.486   7.241
 5784SOL     OW17683   4.152   0.424   6.106
 5784SOL    HW117684   4.182   0.352   6.044
 5784SOL    HW217685   4.113   0.384   6.189
 5785SOL     OW17686   5.429   1.487   6.690
 5785SOL    HW117687   5.336   1.462   6.663
 5785SOL    HW217688   5.455   1.437   6.772
 5786SOL     OW17689   4.041   0.547   6.866
 5786SOL    HW117690   4.079   0.488   6.938
 5786SOL    HW217691   4.081   0.521   6.778
 5787SOL     OW17692   4.536   1.586   6.273
 5787SOL    HW117693   4.568   1.596   6.179
 5787SOL    HW217694   4.457   1.524   6.275
 5788SOL     OW17695   5.148   0.214   6.698
 5788SOL    HW117696   5.200   0.149   6.753
 5788SOL    HW217697   5.099   0.277   6.759
 5789SOL     OW17698   4.725   0.034   6.740
 5789SOL    HW117699   4.662  -0.038   6.709
 5789SOL    HW217700   4.818  -0.002   6.740
 5790SOL     OW17701   4.494   1.330   5.887
 5790SOL    HW117702   4.448   1.243   5.904
 5790SOL    HW217703   4.585   1.327   5.928
 5791SOL     OW17704   4.342   1.567   6.870
 5791SOL    HW117705   4.337   1.649   6.927
 5791SOL    HW217706   4.431   1.564   6.825
 5792SOL     OW17707   5.076   0.052   5.754
 5792SOL    HW117708   5.111   0.011   5.670
 5792SOL    HW217709   4.986   0.014   5.774
 5793SOL     OW17710   5.024   0.453   6.277
 5793SOL    HW117711   4.965   0.533   6.281
 5793SOL    HW217712   5.039   0.418   6.370
 5794SOL     OW17713   5.317   0.221   6.468
 5794SOL    HW117714   5.233   0.220   6.522
 5794SOL    HW217715   5.319   0.304   6.412
 5795SOL     OW17716   3.763   1.077   5.886
 5795SOL    HW117717   3.862   1.066   5.877
 5795SOL    HW217718   3.723   0.991   5.918
 5796SOL     OW17719   4.599   1.646   5.923
 5796SOL    HW117720   4.522   1.611   5.869
 5796SOL    HW217721   4.567   1.717   5.985
 5797SOL     OW17722   3.954   0.628   7.561
 5797SOL    HW117723   3.861   0.626   7.598
 5797SOL    HW217724   3.955   0.589   7.469
 5798SOL     OW17725   3.955   1.713   7.931
 5798SOL    HW117726   3.989   1.790   7.985
 5798SOL    HW217727   3.999   1.713   7.841
 5799SOL     OW17728   3.954   1.434   7.986
 5799SOL    HW117729   3.928   1.530   7.986
 5799SOL    HW217730   3.883   1.380   8.031
 5800SOL     OW17731   4.330   0.964   7.571
 5800SOL    HW117732   4.337   1.048   7.517
 5800SOL    HW217733   4.376   0.977   7.659
 5801SOL     OW17734   3.751   1.596   7.565
 5801SOL    HW117735   3.732   1.500   7.586
 5801SOL    HW217736   3.718   1.654   7.640
 5802SOL     OW17737   5.413   0.922   8.060
 5802SOL    HW117738   5.508   0.893   8.068
 5802SOL    HW217739   5.405   0.987   7.985
 5803SOL     OW17740   4.533   0.004   7.950
 5803SOL    HW117741   4.573   0.095   7.941
 5803SOL    HW217742   4.433   0.012   7.956
 5804SOL     OW17743   4.322   0.729   7.718
 5804SOL    HW117744   4.346   0.798   7.650
 5804SOL    HW217745   4.244   0.762   7.772
 5805SOL     OW17746   3.800   0.811   8.237
 5805SOL    HW117747   3.899   0.799   8.246
 5805SOL    HW217748   3.776   0.906   8.258
 5806SOL     OW17749   4.589   0.348   7.643
 5806SOL    HW117750   4.648   0.411   7.594
 5806SOL    HW217751   4.608   0.254   7.614
 5807SOL     OW17752   4.045   0.943   7.690
 5807SOL    HW117753   4.127   0.982   7.648
 5807SOL    HW217754   4.018   0.861   7.641
 5808SOL     OW17755   4.835   1.776   7.685
 5808SOL    HW117756   4.775   1.714   7.735
 5808SOL    HW217757   4.866   1.732   7.600
 5809SOL     OW17758   4.188   1.743   7.771
 5809SOL    HW117759   4.221   1.782   7.857
 5809SOL    HW217760   4.264   1.736   7.706
 5810SOL     OW17761   5.124   0.107   7.874
 5810SOL    HW117762   5.100   0.070   7.784
 5810SOL    HW217763   5.223   0.123   7.878
 5811SOL     OW17764   4.106   0.700   7.928
 5811SOL    HW117765   4.151   0.610   7.925
 5811SOL    HW217766   4.012   0.689   7.961
 5812SOL     OW17767   4.338   0.122   7.565
 5812SOL    HW117768   4.436   0.100   7.572
 5812SOL    HW217769   4.307   0.105   7.472
 5813SOL     OW17770   4.263   0.064   7.960
 5813SOL    HW117771   4.182   0.065   8.018
 5813SOL    HW217772   4.266   0.147   7.905
 5814SOL     OW17773   5.158   1.188   7.489
 5814SOL    HW117774   5.190   1.112   7.546
 5814SOL    HW217775   5.066   1.215   7.519
 5815SOL     OW17776   4.021   0.035   7.619
 5815SOL    HW117777   4.070   0.119   7.598
 5815SOL    HW217778   4.083  -0.030   7.664
 5816SOL     OW17779   4.659   0.236   7.928
 5816SOL    HW117780   4.611   0.277   7.850
 5816SOL    HW217781   4.758   0.234   7.909
 5817SOL     OW17782   4.183   1.152   8.189
 5817SOL    HW117783   4.112   1.125   8.254
 5817SOL    HW217784   4.157   1.124   8.096
 5818SOL     OW17785   4.995   1.797   8.039
 5818SOL    HW117786   5.039   1.861   7.975
 5818SOL    HW217787   4.945   1.849   8.109
 5819SOL     OW17788   4.756   0.549   7.464
 5819SOL    HW117789   4.715   0.631   7.425
 5819SOL    HW217790   4.820   0.575   7.537
 5820SOL     OW17791   4.212   1.385   7.622
 5820SOL    HW117792   4.125   1.370   7.669
 5820SOL    HW217793   4.195   1.411   7.527
 5821SOL     OW17794   5.114   0.575   7.526
 5821SOL    HW117795   5.060   0.554   7.607
 5821SOL    HW217796   5.205   0.534   7.535
 5822SOL     OW17797   4.251   0.256   7.776
 5822SOL    HW117798   4.278   0.197   7.701
 5822SOL    HW217799   4.251   0.351   7.745
 5823SOL     OW17800   4.429   1.050   7.816
 5823SOL    HW117801   4.415   1.057   7.915
 5823SOL    HW217802   4.513   0.999   7.798
 5824SOL     OW17803   4.091   1.100   7.949
 5824SOL    HW117804   4.084   1.183   7.893
 5824SOL    HW217805   4.095   1.020   7.889
 5825SOL     OW17806   4.976   1.348   7.836
 5825SOL    HW117807   5.026   1.425   7.876
 5825SOL    HW217808   4.881   1.350   7.868
 5826SOL     OW17809   5.306   0.639   7.920
 5826SOL    HW117810   5.275   0.700   7.993
 5826SOL    HW217811   5.356   0.691   7.851
 5827SOL     OW17812   4.933   0.525   7.723
 5827SOL    HW117813   4.946   0.441   7.777
 5827SOL    HW217814   4.904   0.599   7.783
 5828SOL     OW17815   5.346   0.367   7.822
 5828SOL    HW117816   5.348   0.291   7.886
 5828SOL    HW217817   5.298   0.444   7.862
 5829SOL     OW17818   5.027   0.838   7.490
 5829SOL    HW117819   5.061   0.745   7.505
 5829SOL    HW217820   5.045   0.865   7.395
 5830SOL     OW17821   3.732   1.326   7.648
 5830SOL    HW117822   3.639   1.347   7.617
 5830SOL    HW217823   3.742   1.227   7.661
 5831SOL     OW17824   4.539   0.572   7.773
 5831SOL    HW117825   4.546   0.483   7.727
 5831SOL    HW217826   4.445   0.606   7.765
 5832SOL     OW17827   4.197   0.500   7.639
 5832SOL    HW117828   4.258   0.580   7.643
 5832SOL    HW217829   4.102   0.531   7.646
 5833SOL     OW17830   5.026   0.855   7.757
 5833SOL    HW117831   4.940   0.824   7.799
 5833SOL    HW217832   5.022   0.841   7.658
 5834SOL     OW17833   5.112   1.573   7.925
 5834SOL    HW117834   5.179   1.585   7.851
 5834SOL    HW217835   5.072   1.662   7.948
 5835SOL     OW17836   4.396   1.616   7.602
 5835SOL    HW117837   4.405   1.626   7.503
 5835SOL    HW217838   4.356   1.527   7.623
 5836SOL     OW17839   4.918   1.612   7.479
 5836SOL    HW117840   4.924   1.519   7.516
 5836SOL    HW217841   4.859   1.612   7.399
 5837SOL     OW17842   4.640   0.910   7.739
 5837SOL    HW117843   4.703   0.948   7.671
 5837SOL    HW217844   4.680   0.827   7.778
 5838SOL     OW17845   4.314   1.487   7.939
 5838SOL    HW117846   4.356   1.429   7.869
 5838SOL    HW217847   4.270   1.566   7.895
 5839SOL     OW17848   3.979   1.348   7.738
 5839SOL    HW117849   3.883   1.349   7.711
 5839SOL    HW217850   3.991   1.401   7.822
 5840SOL     OW17851   3.799   0.345   7.481
 5840SOL    HW117852   3.707   0.317   7.452
 5840SOL    HW217853   3.830   0.422   7.425
 5841SOL     OW17854   3.796   0.166   7.766
 5841SOL    HW117855   3.779   0.249   7.712
 5841SOL    HW217856   3.886   0.129   7.744
 5842SOL     OW17857   4.907   1.335   7.567
 5842SOL    HW117858   4.808   1.324   7.569
 5842SOL    HW217859   4.941   1.350   7.660
 5843SOL     OW17860   5.217   1.767   8.407
 5843SOL    HW117861   5.250   1.831   8.338
 5843SOL    HW217862   5.283   1.761   8.482
 5844SOL     OW17863   4.949   0.325   7.897
 5844SOL    HW117864   5.014   0.251   7.886
 5844SOL    HW217865   4.969   0.375   7.981
 5845SOL     OW17866   4.318   0.745   8.100
 5845SOL    HW117867   4.368   0.830   8.081
 5845SOL    HW217868   4.230   0.747   8.052
 5846SOL     OW17869   4.583   1.374   7.464
 5846SOL    HW117870   4.537   1.389   7.552
 5846SOL    HW217871   4.627   1.459   7.434
 5847SOL     OW17872   4.807   0.984   7.535
 5847SOL    HW117873   4.784   1.037   7.453
 5847SOL    HW217874   4.888   0.928   7.516
 5848SOL     OW17875   4.152   0.424   7.968
 5848SOL    HW117876   4.182   0.352   7.906
 5848SOL    HW217877   4.113   0.384   8.051
 5849SOL     OW17878   4.494   1.330   7.749
 5849SOL    HW117879   4.448   1.243   7.766
 5849SOL    HW217880   4.585   1.327   7.790
 5850SOL     OW17881   5.076   0.052   7.616
 5850SOL    HW117882   5.111   0.011   7.532
 5850SOL    HW217883   4.986   0.014   7.636
 5851SOL     OW17884   3.763   1.077   7.748
 5851SOL    HW117885   3.862   1.066   7.739
 5851SOL    HW217886   3.723   0.991   7.780
 5852SOL     OW17887   4.599   1.646   7.785
 5852SOL    HW117888   4.522   1.611   7.731
 5852SOL    HW217889   4.567   1.717   7.847
 5853SOL     OW17890   3.954   2.490   0.113
 5853SOL    HW117891   3.861   2.488   0.150
 5853SOL    HW217892   3.955   2.451   0.021
 5854SOL     OW17893   3.949   2.137   0.996
 5854SOL    HW117894   3.984   2.120   1.088
 5854SOL    HW217895   3.861   2.092   0.984
 5855SOL     OW17896   3.743   2.230   0.647
 5855SOL    HW117897   3.661   2.273   0.686
 5855SOL    HW217898   3.715   2.157   0.584
 5856SOL     OW17899   4.293   3.137   1.165
 5856SOL    HW117900   4.200   3.130   1.128
 5856SOL    HW217901   4.304   3.226   1.209
 5857SOL     OW17902   5.279   3.373   0.703
 5857SOL    HW117903   5.222   3.357   0.784
 5857SOL    HW217904   5.220   3.383   0.623
 5858SOL     OW17905   4.859   2.565   0.717
 5858SOL    HW117906   4.916   2.643   0.692
 5858SOL    HW217907   4.799   2.591   0.793
 5859SOL     OW17908   4.492   3.006   1.023
 5859SOL    HW117909   4.414   3.023   1.083
 5859SOL    HW217910   4.526   3.093   0.987
 5860SOL     OW17911   4.574   2.660   1.823
 5860SOL    HW117912   4.570   2.736   1.888
 5860SOL    HW217913   4.596   2.696   1.732
 5861SOL     OW17914   4.409   2.874   0.665
 5861SOL    HW117915   4.478   2.858   0.735
 5861SOL    HW217916   4.336   2.931   0.703
 5862SOL     OW17917   4.410   3.023   1.803
 5862SOL    HW117918   4.470   3.102   1.817
 5862SOL    HW217919   4.324   3.054   1.762
 5863SOL     OW17920   4.059   3.297   1.061
 5863SOL    HW117921   3.981   3.266   1.008
 5863SOL    HW217922   4.117   3.355   1.004
 5864SOL     OW17923   5.184   3.367   1.339
 5864SOL    HW117924   5.208   3.461   1.365
 5864SOL    HW217925   5.168   3.313   1.421
 5865SOL     OW17926   4.162   2.254   1.499
 5865SOL    HW117927   4.244   2.198   1.508
 5865SOL    HW217928   4.081   2.196   1.503
 5866SOL     OW17929   3.955   3.575   0.483
 5866SOL    HW117930   3.989   3.652   0.537
 5866SOL    HW217931   3.999   3.575   0.393
 5867SOL     OW17932   4.851   3.203   1.690
 5867SOL    HW117933   4.898   3.203   1.778
 5867SOL    HW217934   4.803   3.116   1.679
 5868SOL     OW17935   3.954   3.296   0.538
 5868SOL    HW117936   3.928   3.392   0.538
 5868SOL    HW217937   3.883   3.242   0.583
 5869SOL     OW17938   3.964   2.953   0.886
 5869SOL    HW117939   3.978   2.869   0.938
 5869SOL    HW217940   3.909   3.017   0.941
 5870SOL     OW17941   4.344   3.648   1.439
 5870SOL    HW117942   4.252   3.631   1.474
 5870SOL    HW217943   4.372   3.740   1.465
 5871SOL     OW17944   4.330   2.826   0.123
 5871SOL    HW117945   4.337   2.910   0.069
 5871SOL    HW217946   4.376   2.839   0.211
 5872SOL     OW17947   3.846   2.505   0.563
 5872SOL    HW117948   3.801   2.417   0.580
 5872SOL    HW217949   3.845   2.559   0.647
 5873SOL     OW17950   3.751   3.458   0.117
 5873SOL    HW117951   3.732   3.362   0.138
 5873SOL    HW217952   3.718   3.516   0.192
 5874SOL     OW17953   5.413   2.784   0.612
 5874SOL    HW117954   5.508   2.755   0.620
 5874SOL    HW217955   5.405   2.849   0.537
 5875SOL     OW17956   3.837   2.599   1.597
 5875SOL    HW117957   3.925   2.586   1.642
 5875SOL    HW217958   3.824   2.696   1.575
 5876SOL     OW17959   4.337   3.227   0.726
 5876SOL    HW117960   4.288   3.140   0.735
 5876SOL    HW217961   4.314   3.270   0.639
 5877SOL     OW17962   5.017   3.090   1.423
 5877SOL    HW117963   5.054   3.017   1.365
 5877SOL    HW217964   5.069   3.095   1.508
 5878SOL     OW17965   4.533   1.866   0.502
 5878SOL    HW117966   4.573   1.957   0.493
 5878SOL    HW217967   4.433   1.874   0.508
 5879SOL     OW17968   3.921   2.838   1.264
 5879SOL    HW117969   4.010   2.793   1.250
 5879SOL    HW217970   3.848   2.773   1.245
 5880SOL     OW17971   4.911   3.654   1.616
 5880SOL    HW117972   4.935   3.714   1.540
 5880SOL    HW217973   4.918   3.559   1.586
 5881SOL     OW17974   4.041   2.113   1.801
 5881SOL    HW117975   4.112   2.184   1.807
 5881SOL    HW217976   3.953   2.152   1.829
 5882SOL     OW17977   5.190   3.279   0.953
 5882SOL    HW117978   5.131   3.285   1.033
 5882SOL    HW217979   5.175   3.191   0.907
 5883SOL     OW17980   4.322   2.591   0.270
 5883SOL    HW117981   4.346   2.660   0.202
 5883SOL    HW217982   4.244   2.624   0.324
 5884SOL     OW17983   5.005   2.207   0.944
 5884SOL    HW117984   4.919   2.157   0.931
 5884SOL    HW217985   5.067   2.153   1.000
 5885SOL     OW17986   4.531   2.467   1.465
 5885SOL    HW117987   4.484   2.464   1.554
 5885SOL    HW217988   4.480   2.412   1.399
 5886SOL     OW17989   5.118   2.331   1.674
 5886SOL    HW117990   5.098   2.374   1.762
 5886SOL    HW217991   5.196   2.269   1.683
 5887SOL     OW17992   4.697   2.752   1.572
 5887SOL    HW117993   4.743   2.668   1.543
 5887SOL    HW217994   4.641   2.786   1.497
 5888SOL     OW17995   4.715   2.272   1.242
 5888SOL    HW117996   4.638   2.306   1.296
 5888SOL    HW217997   4.681   2.221   1.163
 5889SOL     OW17998   4.765   2.563   0.429
 5889SOL    HW117999   4.791   2.559   0.525
 5889SOL    HW218000   4.680   2.512   0.415
 5890SOL     OW18001   3.800   2.673   0.789
 5890SOL    HW118002   3.899   2.661   0.798
 5890SOL    HW218003   3.776   2.768   0.810
 5891SOL     OW18004   3.854   3.683   1.571
 5891SOL    HW118005   3.844   3.668   1.670
 5891SOL    HW218006   3.768   3.719   1.535
 5892SOL     OW18007   4.589   2.210   0.195
 5892SOL    HW118008   4.648   2.273   0.146
 5892SOL    HW218009   4.608   2.116   0.166
 5893SOL     OW18010   5.086   3.006   0.545
 5893SOL    HW118011   5.169   2.977   0.497
 5893SOL    HW218012   5.037   3.073   0.489
 5894SOL     OW18013   4.274   2.058   0.885
 5894SOL    HW118014   4.269   2.053   0.985
 5894SOL    HW218015   4.276   2.154   0.856
 5895SOL     OW18016   4.732   3.318   0.477
 5895SOL    HW118017   4.686   3.390   0.425
 5895SOL    HW218018   4.728   3.338   0.575
 5896SOL     OW18019   4.075   3.663   0.853
 5896SOL    HW118020   4.125   3.577   0.859
 5896SOL    HW218021   4.140   3.740   0.850
 5897SOL     OW18022   4.951   3.412   1.506
 5897SOL    HW118023   4.957   3.335   1.570
 5897SOL    HW218024   4.899   3.386   1.426
 5898SOL     OW18025   4.045   2.805   0.242
 5898SOL    HW118026   4.127   2.844   0.200
 5898SOL    HW218027   4.018   2.723   0.193
 5899SOL     OW18028   4.185   3.128   1.727
 5899SOL    HW118029   4.135   3.129   1.641
 5899SOL    HW218030   4.122   3.110   1.803
 5900SOL     OW18031   4.835   3.638   0.237
 5900SOL    HW118032   4.775   3.576   0.287
 5900SOL    HW218033   4.866   3.594   0.152
 5901SOL     OW18034   3.926   2.147   1.498
 5901SOL    HW118035   3.846   2.207   1.485
 5901SOL    HW218036   3.916   2.098   1.584
 5902SOL     OW18037   4.188   3.605   0.323
 5902SOL    HW118038   4.221   3.644   0.409
 5902SOL    HW218039   4.264   3.598   0.258
 5903SOL     OW18040   5.124   1.969   0.426
 5903SOL    HW118041   5.100   1.932   0.336
 5903SOL    HW218042   5.223   1.985   0.430
 5904SOL     OW18043   3.973   3.647   1.241
 5904SOL    HW118044   4.030   3.582   1.291
 5904SOL    HW218045   3.957   3.614   1.148
 5905SOL     OW18046   4.664   3.560   0.904
 5905SOL    HW118047   4.744   3.503   0.925
 5905SOL    HW218048   4.615   3.520   0.827
 5906SOL     OW18049   4.106   2.562   0.480
 5906SOL    HW118050   4.151   2.472   0.477
 5906SOL    HW218051   4.012   2.551   0.513
 5907SOL     OW18052   4.338   1.984   0.117
 5907SOL    HW118053   4.436   1.962   0.124
 5907SOL    HW218054   4.307   1.967   0.024
 5908SOL     OW18055   4.505   2.126   1.749
 5908SOL    HW118056   4.572   2.065   1.792
 5908SOL    HW218057   4.432   2.145   1.814
 5909SOL     OW18058   4.612   3.376   1.195
 5909SOL    HW118059   4.589   3.351   1.101
 5909SOL    HW218060   4.673   3.307   1.234
 5910SOL     OW18061   5.075   2.452   1.433
 5910SOL    HW118062   5.103   2.409   1.518
 5910SOL    HW218063   5.100   2.548   1.434
 5911SOL     OW18064   4.527   3.264   0.924
 5911SOL    HW118065   4.617   3.278   0.882
 5911SOL    HW218066   4.456   3.266   0.853
 5912SOL     OW18067   4.646   2.365   0.899
 5912SOL    HW118068   4.621   2.356   0.803
 5912SOL    HW218069   4.694   2.283   0.930
 5913SOL     OW18070   4.263   1.926   0.512
 5913SOL    HW118071   4.182   1.927   0.570
 5913SOL    HW218072   4.266   2.009   0.457
 5914SOL     OW18073   5.158   3.050   0.041
 5914SOL    HW118074   5.190   2.974   0.098
 5914SOL    HW218075   5.066   3.077   0.071
 5915SOL     OW18076   4.021   1.897   0.171
 5915SOL    HW118077   4.070   1.981   0.150
 5915SOL    HW218078   4.083   1.832   0.216
 5916SOL     OW18079   4.659   2.098   0.480
 5916SOL    HW118080   4.611   2.139   0.402
 5916SOL    HW218081   4.758   2.096   0.461
 5917SOL     OW18082   4.800   2.545   1.464
 5917SOL    HW118083   4.720   2.484   1.467
 5917SOL    HW218084   4.881   2.492   1.440
 5918SOL     OW18085   4.951   3.432   0.793
 5918SOL    HW118086   4.972   3.506   0.728
 5918SOL    HW218087   5.019   3.432   0.866
 5919SOL     OW18088   4.183   3.014   0.741
 5919SOL    HW118089   4.112   2.987   0.806
 5919SOL    HW218090   4.157   2.986   0.648
 5920SOL     OW18091   4.995   3.659   0.591
 5920SOL    HW118092   5.039   3.723   0.527
 5920SOL    HW218093   4.945   3.711   0.661
 5921SOL     OW18094   4.756   2.411   0.016
 5921SOL    HW118095   4.715   2.493  -0.023
 5921SOL    HW218096   4.820   2.437   0.089
 5922SOL     OW18097   3.802   2.418   1.386
 5922SOL    HW118098   3.894   2.417   1.345
 5922SOL    HW218099   3.796   2.492   1.453
 5923SOL     OW18100   4.285   2.084   1.147
 5923SOL    HW118101   4.323   2.000   1.184
 5923SOL    HW218102   4.197   2.103   1.191
 5924SOL     OW18103   4.590   2.316   0.642
 5924SOL    HW118104   4.558   2.388   0.580
 5924SOL    HW218105   4.614   2.235   0.589
 5925SOL     OW18106   4.741   1.901   0.753
 5925SOL    HW118107   4.669   1.906   0.684
 5925SOL    HW218108   4.717   1.832   0.822
 5926SOL     OW18109   5.153   3.035   0.867
 5926SOL    HW118110   5.098   2.951   0.860
 5926SOL    HW218111   5.179   3.064   0.775
 5927SOL     OW18112   4.212   3.247   0.174
 5927SOL    HW118113   4.125   3.232   0.221
 5927SOL    HW218114   4.195   3.273   0.079
 5928SOL     OW18115   5.114   2.437   0.078
 5928SOL    HW118116   5.060   2.416   0.159
 5928SOL    HW218117   5.205   2.396   0.087
 5929SOL     OW18118   4.251   2.118   0.328
 5929SOL    HW118119   4.278   2.059   0.253
 5929SOL    HW218120   4.251   2.213   0.297
 5930SOL     OW18121   4.788   3.209   1.340
 5930SOL    HW118122   4.708   3.186   1.395
 5930SOL    HW218123   4.871   3.183   1.389
 5931SOL     OW18124   5.316   3.491   1.625
 5931SOL    HW118125   5.343   3.525   1.535
 5931SOL    HW218126   5.395   3.453   1.671
 5932SOL     OW18127   4.835   3.057   1.100
 5932SOL    HW118128   4.795   3.101   1.181
 5932SOL    HW218129   4.794   3.094   1.017
 5933SOL     OW18130   4.639   1.951   1.402
 5933SOL    HW118131   4.664   1.931   1.307
 5933SOL    HW218132   4.711   2.007   1.444
 5934SOL     OW18133   4.704   2.978   1.719
 5934SOL    HW118134   4.605   2.984   1.729
 5934SOL    HW218135   4.727   2.898   1.663
 5935SOL     OW18136   4.429   2.912   0.368
 5935SOL    HW118137   4.415   2.919   0.467
 5935SOL    HW218138   4.513   2.861   0.350
 5936SOL     OW18139   4.134   2.675   1.251
 5936SOL    HW118140   4.220   2.687   1.301
 5936SOL    HW218141   4.092   2.588   1.278
 5937SOL     OW18142   4.998   2.248   1.262
 5937SOL    HW118143   5.019   2.322   1.326
 5937SOL    HW218144   4.909   2.265   1.219
 5938SOL     OW18145   3.788   3.426   1.331
 5938SOL    HW118146   3.742   3.508   1.297
 5938SOL    HW218147   3.886   3.445   1.340
 5939SOL     OW18148   4.091   2.962   0.501
 5939SOL    HW118149   4.084   3.045   0.445
 5939SOL    HW218150   4.095   2.882   0.441
 5940SOL     OW18151   4.290   2.399   0.865
 5940SOL    HW118152   4.302   2.465   0.791
 5940SOL    HW218153   4.336   2.433   0.948
 5941SOL     OW18154   4.976   3.210   0.388
 5941SOL    HW118155   5.026   3.287   0.428
 5941SOL    HW218156   4.881   3.212   0.420
 5942SOL     OW18157   4.996   3.307   1.142
 5942SOL    HW118158   5.043   3.320   1.229
 5942SOL    HW218159   4.930   3.233   1.151
 5943SOL     OW18160   4.078   3.372   1.329
 5943SOL    HW118161   4.057   3.328   1.242
 5943SOL    HW218162   4.175   3.398   1.332
 5944SOL     OW18163   4.126   2.613   1.598
 5944SOL    HW118164   4.194   2.668   1.551
 5944SOL    HW218165   4.166   2.525   1.625
 5945SOL     OW18166   4.737   1.967   1.770
 5945SOL    HW118167   4.743   2.052   1.718
 5945SOL    HW218168   4.769   1.891   1.713
 5946SOL     OW18169   4.228   1.912   1.740
 5946SOL    HW118170   4.186   1.855   1.670
 5946SOL    HW218171   4.162   1.981   1.772
 5947SOL     OW18172   4.297   2.732   1.029
 5947SOL    HW118173   4.341   2.821   1.020
 5947SOL    HW218174   4.234   2.732   1.106
 5948SOL     OW18175   5.084   2.724   1.045
 5948SOL    HW118176   5.009   2.724   0.979
 5948SOL    HW218177   5.121   2.632   1.054
 5949SOL     OW18178   4.933   2.387   0.275
 5949SOL    HW118179   4.946   2.303   0.329
 5949SOL    HW218180   4.904   2.461   0.335
 5950SOL     OW18181   4.031   2.075   1.231
 5950SOL    HW118182   4.008   2.112   1.321
 5950SOL    HW218183   4.001   1.980   1.225
 5951SOL     OW18184   3.761   3.172   1.282
 5951SOL    HW118185   3.814   3.123   1.350
 5951SOL    HW218186   3.783   3.270   1.287
 5952SOL     OW18187   4.456   2.496   1.064
 5952SOL    HW118188   4.515   2.470   0.988
 5952SOL    HW218189   4.428   2.592   1.053
 5953SOL     OW18190   4.031   1.925   0.618
 5953SOL    HW118191   4.020   2.019   0.651
 5953SOL    HW218192   4.026   1.862   0.695
 5954SOL     OW18193   5.346   2.229   0.374
 5954SOL    HW118194   5.348   2.153   0.438
 5954SOL    HW218195   5.298   2.306   0.414
 5955SOL     OW18196   4.747   2.628   0.966
 5955SOL    HW118197   4.762   2.649   1.062
 5955SOL    HW218198   4.717   2.533   0.957
 5956SOL     OW18199   4.704   3.435   1.700
 5956SOL    HW118200   4.684   3.479   1.612
 5956SOL    HW218201   4.743   3.344   1.684
 5957SOL     OW18202   4.074   2.760   1.804
 5957SOL    HW118203   4.150   2.804   1.852
 5957SOL    HW218204   4.109   2.713   1.722
 5958SOL     OW18205   5.027   2.700   0.042
 5958SOL    HW118206   5.061   2.607   0.057
 5958SOL    HW218207   5.045   2.727  -0.053
 5959SOL     OW18208   4.792   3.195   0.849
 5959SOL    HW118209   4.799   3.111   0.794
 5959SOL    HW218210   4.854   3.264   0.813
 5960SOL     OW18211   4.043   2.672   0.949
 5960SOL    HW118212   4.136   2.708   0.954
 5960SOL    HW218213   4.037   2.587   1.001
 5961SOL     OW18214   4.063   2.371   1.006
 5961SOL    HW118215   4.011   2.288   0.989
 5961SOL    HW218216   4.140   2.376   0.942
 5962SOL     OW18217   4.862   2.242   1.678
 5962SOL    HW118218   4.817   2.305   1.742
 5962SOL    HW218219   4.955   2.273   1.661
 5963SOL     OW18220   4.884   2.069   1.477
 5963SOL    HW118221   4.884   2.133   1.554
 5963SOL    HW218222   4.912   2.117   1.394
 5964SOL     OW18223   3.732   3.188   0.200
 5964SOL    HW118224   3.639   3.209   0.169
 5964SOL    HW218225   3.742   3.089   0.213
 5965SOL     OW18226   3.812   3.663   0.927
 5965SOL    HW118227   3.770   3.577   0.900
 5965SOL    HW218228   3.906   3.666   0.893
 5966SOL     OW18229   4.228   3.430   0.910
 5966SOL    HW118230   4.294   3.504   0.919
 5966SOL    HW218231   4.272   3.351   0.868
 5967SOL     OW18232   4.726   2.658   1.238
 5967SOL    HW118233   4.767   2.626   1.324
 5967SOL    HW218234   4.630   2.631   1.235
 5968SOL     OW18235   3.764   2.406   1.114
 5968SOL    HW118236   3.849   2.373   1.073
 5968SOL    HW218237   3.777   2.421   1.212
 5969SOL     OW18238   3.913   2.382   1.722
 5969SOL    HW118239   3.972   2.342   1.652
 5969SOL    HW218240   3.855   2.453   1.681
 5970SOL     OW18241   5.093   2.812   1.660
 5970SOL    HW118242   5.132   2.901   1.680
 5970SOL    HW218243   5.103   2.792   1.563
 5971SOL     OW18244   4.539   2.434   0.325
 5971SOL    HW118245   4.546   2.345   0.279
 5971SOL    HW218246   4.445   2.468   0.317
 5972SOL     OW18247   3.976   3.426   1.744
 5972SOL    HW118248   3.946   3.483   1.820
 5972SOL    HW218249   3.969   3.329   1.770
 5973SOL     OW18250   4.395   2.326   1.269
 5973SOL    HW118251   4.361   2.237   1.239
 5973SOL    HW218252   4.421   2.380   1.189
 5974SOL     OW18253   4.654   3.540   1.465
 5974SOL    HW118254   4.630   3.522   1.370
 5974SOL    HW218255   4.684   3.634   1.475
 5975SOL     OW18256   4.197   2.362   0.191
 5975SOL    HW118257   4.258   2.442   0.195
 5975SOL    HW218258   4.102   2.393   0.198
 5976SOL     OW18259   3.883   2.999   1.466
 5976SOL    HW118260   3.905   2.938   1.542
 5976SOL    HW218261   3.893   2.950   1.380
 5977SOL     OW18262   5.071   2.921   1.234
 5977SOL    HW118263   5.095   2.858   1.160
 5977SOL    HW218264   4.981   2.961   1.216
 5978SOL     OW18265   5.026   2.717   0.309
 5978SOL    HW118266   4.940   2.686   0.351
 5978SOL    HW218267   5.022   2.703   0.210
 5979SOL     OW18268   4.976   3.593   1.128
 5979SOL    HW118269   5.060   3.598   1.074
 5979SOL    HW218270   4.953   3.497   1.146
 5980SOL     OW18271   3.807   3.120   1.022
 5980SOL    HW118272   3.802   3.119   1.122
 5980SOL    HW218273   3.724   3.079   0.984
 5981SOL     OW18274   4.412   3.524   1.716
 5981SOL    HW118275   4.356   3.605   1.725
 5981SOL    HW218276   4.464   3.528   1.630
 5982SOL     OW18277   4.627   1.948   0.133
 5982SOL    HW118278   4.678   1.949   0.047
 5982SOL    HW218279   4.683   1.906   0.204
 5983SOL     OW18280   5.450   1.997   0.523
 5983SOL    HW118281   5.523   1.980   0.456
 5983SOL    HW218282   5.419   1.910   0.561
 5984SOL     OW18283   5.112   3.435   0.477
 5984SOL    HW118284   5.179   3.447   0.403
 5984SOL    HW218285   5.072   3.524   0.500
 5985SOL     OW18286   3.854   3.656   1.851
 5985SOL    HW118287   3.813   3.582   1.904
 5985SOL    HW218288   3.918   3.707   1.909
 5986SOL     OW18289   5.004   2.789   0.672
 5986SOL    HW118290   5.064   2.708   0.674
 5986SOL    HW218291   5.044   2.858   0.612
 5987SOL     OW18292   4.554   3.135   1.422
 5987SOL    HW118293   4.549   3.168   1.517
 5987SOL    HW218294   4.468   3.154   1.376
 5988SOL     OW18295   4.396   3.478   0.154
 5988SOL    HW118296   4.405   3.488   0.055
 5988SOL    HW218297   4.356   3.389   0.175
 5989SOL     OW18298   3.987   2.188   0.720
 5989SOL    HW118299   3.908   2.239   0.686
 5989SOL    HW218300   3.978   2.173   0.818
 5990SOL     OW18301   4.918   3.474   0.031
 5990SOL    HW118302   4.924   3.381   0.068
 5990SOL    HW218303   4.859   3.474  -0.049
 5991SOL     OW18304   4.546   2.864   1.372
 5991SOL    HW118305   4.586   2.863   1.280
 5991SOL    HW218306   4.556   2.956   1.412
 5992SOL     OW18307   4.640   2.772   0.291
 5992SOL    HW118308   4.703   2.810   0.223
 5992SOL    HW218309   4.680   2.689   0.330
 5993SOL     OW18310   4.096   3.150   1.490
 5993SOL    HW118311   4.083   3.243   1.456
 5993SOL    HW218312   4.012   3.098   1.477
 5994SOL     OW18313   4.763   2.960   0.696
 5994SOL    HW118314   4.693   2.913   0.750
 5994SOL    HW218315   4.822   2.892   0.653
 5995SOL     OW18316   4.738   2.098   0.971
 5995SOL    HW118317   4.730   2.062   0.878
 5995SOL    HW218318   4.736   2.022   1.036
 5996SOL     OW18319   4.314   3.349   0.491
 5996SOL    HW118320   4.356   3.291   0.421
 5996SOL    HW218321   4.270   3.428   0.447
 5997SOL     OW18322   3.979   3.210   0.290
 5997SOL    HW118323   3.883   3.211   0.263
 5997SOL    HW218324   3.991   3.263   0.374
 5998SOL     OW18325   3.829   2.875   1.726
 5998SOL    HW118326   3.752   2.842   1.780
 5998SOL    HW218327   3.914   2.845   1.768
 5999SOL     OW18328   4.396   2.065   1.489
 5999SOL    HW118329   4.486   2.049   1.449
 5999SOL    HW218330   4.404   2.070   1.588
 6000SOL     OW18331   3.799   2.207   0.033
 6000SOL    HW118332   3.707   2.179   0.004
 6000SOL    HW218333   3.830   2.284  -0.023
 6001SOL     OW18334   5.164   2.718   1.398
 6001SOL    HW118335   5.107   2.770   1.335
 6001SOL    HW218336   5.260   2.730   1.374
 6002SOL     OW18337   3.796   2.028   0.318
 6002SOL    HW118338   3.779   2.111   0.264
 6002SOL    HW218339   3.886   1.991   0.296
 6003SOL     OW18340   4.907   3.197   0.119
 6003SOL    HW118341   4.808   3.186   0.121
 6003SOL    HW218342   4.941   3.212   0.212
 6004SOL     OW18343   4.337   2.704   1.431
 6004SOL    HW118344   4.393   2.785   1.414
 6004SOL    HW218345   4.396   2.624   1.434
 6005SOL     OW18346   4.440   2.427   1.708
 6005SOL    HW118347   4.459   2.492   1.782
 6005SOL    HW218348   4.500   2.347   1.717
 6006SOL     OW18349   5.174   3.082   1.633
 6006SOL    HW118350   5.165   3.072   1.732
 6006SOL    HW218351   5.270   3.075   1.607
 6007SOL     OW18352   4.114   3.603   1.560
 6007SOL    HW118353   4.023   3.644   1.558
 6007SOL    HW218354   4.107   3.509   1.592
 6008SOL     OW18355   4.949   2.187   0.449
 6008SOL    HW118356   5.014   2.113   0.438
 6008SOL    HW218357   4.969   2.237   0.533
 6009SOL     OW18358   4.318   2.607   0.652
 6009SOL    HW118359   4.368   2.692   0.633
 6009SOL    HW218360   4.230   2.609   0.604
 6010SOL     OW18361   4.583   3.236   0.016
 6010SOL    HW118362   4.537   3.251   0.104
 6010SOL    HW218363   4.627   3.321  -0.014
 6011SOL     OW18364   4.385   3.652   0.953
 6011SOL    HW118365   4.339   3.740   0.940
 6011SOL    HW218366   4.484   3.664   0.946
 6012SOL     OW18367   4.583   2.818   0.861
 6012SOL    HW118368   4.637   2.749   0.909
 6012SOL    HW218369   4.551   2.887   0.927
 6013SOL     OW18370   4.807   2.846   0.087
 6013SOL    HW118371   4.784   2.899   0.005
 6013SOL    HW218372   4.888   2.790   0.068
 6014SOL     OW18373   3.945   3.176   1.844
 6014SOL    HW118374   3.880   3.103   1.823
 6014SOL    HW218375   3.949   3.190   1.942
 6015SOL     OW18376   3.803   3.102   0.653
 6015SOL    HW118377   3.802   3.055   0.741
 6015SOL    HW218378   3.885   3.074   0.602
 6016SOL     OW18379   4.396   3.253   1.624
 6016SOL    HW118380   4.318   3.203   1.662
 6016SOL    HW218381   4.393   3.348   1.655
 6017SOL     OW18382   4.152   2.286   0.520
 6017SOL    HW118383   4.182   2.214   0.458
 6017SOL    HW218384   4.113   2.246   0.603
 6018SOL     OW18385   5.429   3.349   1.104
 6018SOL    HW118386   5.336   3.324   1.077
 6018SOL    HW218387   5.455   3.299   1.186
 6019SOL     OW18388   4.041   2.409   1.280
 6019SOL    HW118389   4.079   2.350   1.352
 6019SOL    HW218390   4.081   2.383   1.192
 6020SOL     OW18391   4.536   3.448   0.687
 6020SOL    HW118392   4.568   3.458   0.593
 6020SOL    HW218393   4.457   3.386   0.689
 6021SOL     OW18394   5.148   2.076   1.112
 6021SOL    HW118395   5.200   2.011   1.167
 6021SOL    HW218396   5.099   2.139   1.173
 6022SOL     OW18397   4.725   1.896   1.154
 6022SOL    HW118398   4.662   1.824   1.123
 6022SOL    HW218399   4.818   1.860   1.154
 6023SOL     OW18400   4.494   3.192   0.301
 6023SOL    HW118401   4.448   3.105   0.318
 6023SOL    HW218402   4.585   3.189   0.342
 6024SOL     OW18403   4.342   3.429   1.284
 6024SOL    HW118404   4.337   3.511   1.341
 6024SOL    HW218405   4.431   3.426   1.239
 6025SOL     OW18406   5.076   1.914   0.168
 6025SOL    HW118407   5.111   1.873   0.084
 6025SOL    HW218408   4.986   1.876   0.188
 6026SOL     OW18409   5.024   2.315   0.691
 6026SOL    HW118410   4.965   2.395   0.695
 6026SOL    HW218411   5.039   2.280   0.784
 6027SOL     OW18412   5.317   2.083   0.882
 6027SOL    HW118413   5.233   2.082   0.936
 6027SOL    HW218414   5.319   2.166   0.826
 6028SOL     OW18415   3.763   2.939   0.300
 6028SOL    HW118416   3.862   2.928   0.291
 6028SOL    HW218417   3.723   2.853   0.332
 6029SOL     OW18418   4.599   3.508   0.337
 6029SOL    HW118419   4.522   3.473   0.283
 6029SOL    HW218420   4.567   3.579   0.399
 6030SOL     OW18421   3.954   2.490   1.975
 6030SOL    HW118422   3.861   2.488   2.012
 6030SOL    HW218423   3.955   2.451   1.883
 6031SOL     OW18424   3.949   2.137   2.858
 6031SOL    HW118425   3.984   2.120   2.950
 6031SOL    HW218426   3.861   2.092   2.846
 6032SOL     OW18427   3.743   2.230   2.509
 6032SOL    HW118428   3.661   2.273   2.548
 6032SOL    HW218429   3.715   2.157   2.446
 6033SOL     OW18430   4.293   3.137   3.027
 6033SOL    HW118431   4.200   3.130   2.990
 6033SOL    HW218432   4.304   3.226   3.071
 6034SOL     OW18433   5.279   3.373   2.565
 6034SOL    HW118434   5.222   3.357   2.646
 6034SOL    HW218435   5.220   3.383   2.485
 6035SOL     OW18436   4.859   2.565   2.579
 6035SOL    HW118437   4.916   2.643   2.554
 6035SOL    HW218438   4.799   2.591   2.655
 6036SOL     OW18439   4.492   3.006   2.885
 6036SOL    HW118440   4.414   3.023   2.945
 6036SOL    HW218441   4.526   3.093   2.849
 6037SOL     OW18442   4.574   2.660   3.685
 6037SOL    HW118443   4.570   2.736   3.750
 6037SOL    HW218444   4.596   2.696   3.594
 6038SOL     OW18445   4.409   2.874   2.527
 6038SOL    HW118446   4.478   2.858   2.597
 6038SOL    HW218447   4.336   2.931   2.565
 6039SOL     OW18448   4.410   3.023   3.665
 6039SOL    HW118449   4.470   3.102   3.679
 6039SOL    HW218450   4.324   3.054   3.624
 6040SOL     OW18451   4.059   3.297   2.923
 6040SOL    HW118452   3.981   3.266   2.870
 6040SOL    HW218453   4.117   3.355   2.866
 6041SOL     OW18454   5.184   3.367   3.201
 6041SOL    HW118455   5.208   3.461   3.227
 6041SOL    HW218456   5.168   3.313   3.283
 6042SOL     OW18457   4.162   2.254   3.361
 6042SOL    HW118458   4.244   2.198   3.370
 6042SOL    HW218459   4.081   2.196   3.365
 6043SOL     OW18460   3.955   3.575   2.345
 6043SOL    HW118461   3.989   3.652   2.399
 6043SOL    HW218462   3.999   3.575   2.255
 6044SOL     OW18463   4.851   3.203   3.552
 6044SOL    HW118464   4.898   3.203   3.640
 6044SOL    HW218465   4.803   3.116   3.541
 6045SOL     OW18466   3.954   3.296   2.400
 6045SOL    HW118467   3.928   3.392   2.400
 6045SOL    HW218468   3.883   3.242   2.445
 6046SOL     OW18469   3.964   2.953   2.748
 6046SOL    HW118470   3.978   2.869   2.800
 6046SOL    HW218471   3.909   3.017   2.803
 6047SOL     OW18472   4.344   3.648   3.301
 6047SOL    HW118473   4.252   3.631   3.336
 6047SOL    HW218474   4.372   3.740   3.327
 6048SOL     OW18475   4.330   2.826   1.985
 6048SOL    HW118476   4.337   2.910   1.931
 6048SOL    HW218477   4.376   2.839   2.073
 6049SOL     OW18478   3.846   2.505   2.425
 6049SOL    HW118479   3.801   2.417   2.442
 6049SOL    HW218480   3.845   2.559   2.509
 6050SOL     OW18481   3.751   3.458   1.979
 6050SOL    HW118482   3.732   3.362   2.000
 6050SOL    HW218483   3.718   3.516   2.054
 6051SOL     OW18484   5.413   2.784   2.474
 6051SOL    HW118485   5.508   2.755   2.482
 6051SOL    HW218486   5.405   2.849   2.399
 6052SOL     OW18487   3.837   2.599   3.459
 6052SOL    HW118488   3.925   2.586   3.504
 6052SOL    HW218489   3.824   2.696   3.437
 6053SOL     OW18490   4.337   3.227   2.588
 6053SOL    HW118491   4.288   3.140   2.597
 6053SOL    HW218492   4.314   3.270   2.501
 6054SOL     OW18493   5.017   3.090   3.285
 6054SOL    HW118494   5.054   3.017   3.227
 6054SOL    HW218495   5.069   3.095   3.370
 6055SOL     OW18496   4.533   1.866   2.364
 6055SOL    HW118497   4.573   1.957   2.355
 6055SOL    HW218498   4.433   1.874   2.370
 6056SOL     OW18499   3.921   2.838   3.126
 6056SOL    HW118500   4.010   2.793   3.112
 6056SOL    HW218501   3.848   2.773   3.107
 6057SOL     OW18502   4.911   3.654   3.478
 6057SOL    HW118503   4.935   3.714   3.402
 6057SOL    HW218504   4.918   3.559   3.448
 6058SOL     OW18505   4.041   2.113   3.663
 6058SOL    HW118506   4.112   2.184   3.669
 6058SOL    HW218507   3.953   2.152   3.691
 6059SOL     OW18508   5.190   3.279   2.815
 6059SOL    HW118509   5.131   3.285   2.895
 6059SOL    HW218510   5.175   3.191   2.769
 6060SOL     OW18511   4.322   2.591   2.132
 6060SOL    HW118512   4.346   2.660   2.064
 6060SOL    HW218513   4.244   2.624   2.186
 6061SOL     OW18514   5.005   2.207   2.806
 6061SOL    HW118515   4.919   2.157   2.793
 6061SOL    HW218516   5.067   2.153   2.862
 6062SOL     OW18517   4.531   2.467   3.327
 6062SOL    HW118518   4.484   2.464   3.416
 6062SOL    HW218519   4.480   2.412   3.261
 6063SOL     OW18520   5.118   2.331   3.536
 6063SOL    HW118521   5.098   2.374   3.624
 6063SOL    HW218522   5.196   2.269   3.545
 6064SOL     OW18523   4.697   2.752   3.434
 6064SOL    HW118524   4.743   2.668   3.405
 6064SOL    HW218525   4.641   2.786   3.359
 6065SOL     OW18526   4.715   2.272   3.104
 6065SOL    HW118527   4.638   2.306   3.158
 6065SOL    HW218528   4.681   2.221   3.025
 6066SOL     OW18529   4.765   2.563   2.291
 6066SOL    HW118530   4.791   2.559   2.387
 6066SOL    HW218531   4.680   2.512   2.277
 6067SOL     OW18532   3.800   2.673   2.651
 6067SOL    HW118533   3.899   2.661   2.660
 6067SOL    HW218534   3.776   2.768   2.672
 6068SOL     OW18535   3.854   3.683   3.433
 6068SOL    HW118536   3.844   3.668   3.532
 6068SOL    HW218537   3.768   3.719   3.397
 6069SOL     OW18538   4.589   2.210   2.057
 6069SOL    HW118539   4.648   2.273   2.008
 6069SOL    HW218540   4.608   2.116   2.028
 6070SOL     OW18541   5.086   3.006   2.407
 6070SOL    HW118542   5.169   2.977   2.359
 6070SOL    HW218543   5.037   3.073   2.351
 6071SOL     OW18544   4.274   2.058   2.747
 6071SOL    HW118545   4.269   2.053   2.847
 6071SOL    HW218546   4.276   2.154   2.718
 6072SOL     OW18547   4.732   3.318   2.339
 6072SOL    HW118548   4.686   3.390   2.287
 6072SOL    HW218549   4.728   3.338   2.437
 6073SOL     OW18550   4.075   3.663   2.715
 6073SOL    HW118551   4.125   3.577   2.721
 6073SOL    HW218552   4.140   3.740   2.712
 6074SOL     OW18553   4.951   3.412   3.368
 6074SOL    HW118554   4.957   3.335   3.432
 6074SOL    HW218555   4.899   3.386   3.288
 6075SOL     OW18556   4.045   2.805   2.104
 6075SOL    HW118557   4.127   2.844   2.062
 6075SOL    HW218558   4.018   2.723   2.055
 6076SOL     OW18559   4.185   3.128   3.589
 6076SOL    HW118560   4.135   3.129   3.503
 6076SOL    HW218561   4.122   3.110   3.665
 6077SOL     OW18562   4.835   3.638   2.099
 6077SOL    HW118563   4.775   3.576   2.149
 6077SOL    HW218564   4.866   3.594   2.014
 6078SOL     OW18565   3.926   2.147   3.360
 6078SOL    HW118566   3.846   2.207   3.347
 6078SOL    HW218567   3.916   2.098   3.446
 6079SOL     OW18568   4.188   3.605   2.185
 6079SOL    HW118569   4.221   3.644   2.271
 6079SOL    HW218570   4.264   3.598   2.120
 6080SOL     OW18571   5.124   1.969   2.288
 6080SOL    HW118572   5.100   1.932   2.198
 6080SOL    HW218573   5.223   1.985   2.292
 6081SOL     OW18574   3.973   3.647   3.103
 6081SOL    HW118575   4.030   3.582   3.153
 6081SOL    HW218576   3.957   3.614   3.010
 6082SOL     OW18577   4.664   3.560   2.766
 6082SOL    HW118578   4.744   3.503   2.787
 6082SOL    HW218579   4.615   3.520   2.689
 6083SOL     OW18580   4.106   2.562   2.342
 6083SOL    HW118581   4.151   2.472   2.339
 6083SOL    HW218582   4.012   2.551   2.375
 6084SOL     OW18583   4.338   1.984   1.979
 6084SOL    HW118584   4.436   1.962   1.986
 6084SOL    HW218585   4.307   1.967   1.886
 6085SOL     OW18586   4.505   2.126   3.611
 6085SOL    HW118587   4.572   2.065   3.654
 6085SOL    HW218588   4.432   2.145   3.676
 6086SOL     OW18589   4.612   3.376   3.057
 6086SOL    HW118590   4.589   3.351   2.963
 6086SOL    HW218591   4.673   3.307   3.096
 6087SOL     OW18592   5.075   2.452   3.295
 6087SOL    HW118593   5.103   2.409   3.380
 6087SOL    HW218594   5.100   2.548   3.296
 6088SOL     OW18595   4.527   3.264   2.786
 6088SOL    HW118596   4.617   3.278   2.744
 6088SOL    HW218597   4.456   3.266   2.715
 6089SOL     OW18598   4.646   2.365   2.761
 6089SOL    HW118599   4.621   2.356   2.665
 6089SOL    HW218600   4.694   2.283   2.792
 6090SOL     OW18601   4.263   1.926   2.374
 6090SOL    HW118602   4.182   1.927   2.432
 6090SOL    HW218603   4.266   2.009   2.319
 6091SOL     OW18604   5.158   3.050   1.903
 6091SOL    HW118605   5.190   2.974   1.960
 6091SOL    HW218606   5.066   3.077   1.933
 6092SOL     OW18607   4.021   1.897   2.033
 6092SOL    HW118608   4.070   1.981   2.012
 6092SOL    HW218609   4.083   1.832   2.078
 6093SOL     OW18610   4.659   2.098   2.342
 6093SOL    HW118611   4.611   2.139   2.264
 6093SOL    HW218612   4.758   2.096   2.323
 6094SOL     OW18613   4.800   2.545   3.326
 6094SOL    HW118614   4.720   2.484   3.329
 6094SOL    HW218615   4.881   2.492   3.302
 6095SOL     OW18616   4.951   3.432   2.655
 6095SOL    HW118617   4.972   3.506   2.590
 6095SOL    HW218618   5.019   3.432   2.728
 6096SOL     OW18619   4.183   3.014   2.603
 6096SOL    HW118620   4.112   2.987   2.668
 6096SOL    HW218621   4.157   2.986   2.510
 6097SOL     OW18622   4.995   3.659   2.453
 6097SOL    HW118623   5.039   3.723   2.389
 6097SOL    HW218624   4.945   3.711   2.523
 6098SOL     OW18625   4.756   2.411   1.878
 6098SOL    HW118626   4.715   2.493   1.839
 6098SOL    HW218627   4.820   2.437   1.951
 6099SOL     OW18628   3.802   2.418   3.248
 6099SOL    HW118629   3.894   2.417   3.207
 6099SOL    HW218630   3.796   2.492   3.315
 6100SOL     OW18631   4.285   2.084   3.009
 6100SOL    HW118632   4.323   2.000   3.046
 6100SOL    HW218633   4.197   2.103   3.053
 6101SOL     OW18634   4.590   2.316   2.504
 6101SOL    HW118635   4.558   2.388   2.442
 6101SOL    HW218636   4.614   2.235   2.451
 6102SOL     OW18637   4.741   1.901   2.615
 6102SOL    HW118638   4.669   1.906   2.546
 6102SOL    HW218639   4.717   1.832   2.684
 6103SOL     OW18640   5.153   3.035   2.729
 6103SOL    HW118641   5.098   2.951   2.722
 6103SOL    HW218642   5.179   3.064   2.637
 6104SOL     OW18643   4.212   3.247   2.036
 6104SOL    HW118644   4.125   3.232   2.083
 6104SOL    HW218645   4.195   3.273   1.941
 6105SOL     OW18646   5.114   2.437   1.940
 6105SOL    HW118647   5.060   2.416   2.021
 6105SOL    HW218648   5.205   2.396   1.949
 6106SOL     OW18649   4.251   2.118   2.190
 6106SOL    HW118650   4.278   2.059   2.115
 6106SOL    HW218651   4.251   2.213   2.159
 6107SOL     OW18652   4.788   3.209   3.202
 6107SOL    HW118653   4.708   3.186   3.257
 6107SOL    HW218654   4.871   3.183   3.251
 6108SOL     OW18655   5.316   3.491   3.487
 6108SOL    HW118656   5.343   3.525   3.397
 6108SOL    HW218657   5.395   3.453   3.533
 6109SOL     OW18658   4.835   3.057   2.962
 6109SOL    HW118659   4.795   3.101   3.043
 6109SOL    HW218660   4.794   3.094   2.879
 6110SOL     OW18661   4.639   1.951   3.264
 6110SOL    HW118662   4.664   1.931   3.169
 6110SOL    HW218663   4.711   2.007   3.306
 6111SOL     OW18664   4.704   2.978   3.581
 6111SOL    HW118665   4.605   2.984   3.591
 6111SOL    HW218666   4.727   2.898   3.525
 6112SOL     OW18667   4.429   2.912   2.230
 6112SOL    HW118668   4.415   2.919   2.329
 6112SOL    HW218669   4.513   2.861   2.212
 6113SOL     OW18670   4.134   2.675   3.113
 6113SOL    HW118671   4.220   2.687   3.163
 6113SOL    HW218672   4.092   2.588   3.140
 6114SOL     OW18673   4.998   2.248   3.124
 6114SOL    HW118674   5.019   2.322   3.188
 6114SOL    HW218675   4.909   2.265   3.081
 6115SOL     OW18676   3.788   3.426   3.193
 6115SOL    HW118677   3.742   3.508   3.159
 6115SOL    HW218678   3.886   3.445   3.202
 6116SOL     OW18679   4.091   2.962   2.363
 6116SOL    HW118680   4.084   3.045   2.307
 6116SOL    HW218681   4.095   2.882   2.303
 6117SOL     OW18682   4.290   2.399   2.727
 6117SOL    HW118683   4.302   2.465   2.653
 6117SOL    HW218684   4.336   2.433   2.810
 6118SOL     OW18685   4.976   3.210   2.250
 6118SOL    HW118686   5.026   3.287   2.290
 6118SOL    HW218687   4.881   3.212   2.282
 6119SOL     OW18688   4.996   3.307   3.004
 6119SOL    HW118689   5.043   3.320   3.091
 6119SOL    HW218690   4.930   3.233   3.013
 6120SOL     OW18691   4.078   3.372   3.191
 6120SOL    HW118692   4.057   3.328   3.104
 6120SOL    HW218693   4.175   3.398   3.194
 6121SOL     OW18694   4.126   2.613   3.460
 6121SOL    HW118695   4.194   2.668   3.413
 6121SOL    HW218696   4.166   2.525   3.487
 6122SOL     OW18697   4.737   1.967   3.632
 6122SOL    HW118698   4.743   2.052   3.580
 6122SOL    HW218699   4.769   1.891   3.575
 6123SOL     OW18700   4.228   1.912   3.602
 6123SOL    HW118701   4.186   1.855   3.532
 6123SOL    HW218702   4.162   1.981   3.634
 6124SOL     OW18703   4.297   2.732   2.891
 6124SOL    HW118704   4.341   2.821   2.882
 6124SOL    HW218705   4.234   2.732   2.968
 6125SOL     OW18706   5.084   2.724   2.907
 6125SOL    HW118707   5.009   2.724   2.841
 6125SOL    HW218708   5.121   2.632   2.916
 6126SOL     OW18709   4.933   2.387   2.137
 6126SOL    HW118710   4.946   2.303   2.191
 6126SOL    HW218711   4.904   2.461   2.197
 6127SOL     OW18712   4.031   2.075   3.093
 6127SOL    HW118713   4.008   2.112   3.183
 6127SOL    HW218714   4.001   1.980   3.087
 6128SOL     OW18715   3.761   3.172   3.144
 6128SOL    HW118716   3.814   3.123   3.212
 6128SOL    HW218717   3.783   3.270   3.149
 6129SOL     OW18718   4.456   2.496   2.926
 6129SOL    HW118719   4.515   2.470   2.850
 6129SOL    HW218720   4.428   2.592   2.915
 6130SOL     OW18721   4.031   1.925   2.480
 6130SOL    HW118722   4.020   2.019   2.513
 6130SOL    HW218723   4.026   1.862   2.557
 6131SOL     OW18724   5.346   2.229   2.236
 6131SOL    HW118725   5.348   2.153   2.300
 6131SOL    HW218726   5.298   2.306   2.276
 6132SOL     OW18727   4.747   2.628   2.828
 6132SOL    HW118728   4.762   2.649   2.924
 6132SOL    HW218729   4.717   2.533   2.819
 6133SOL     OW18730   4.704   3.435   3.562
 6133SOL    HW118731   4.684   3.479   3.474
 6133SOL    HW218732   4.743   3.344   3.546
 6134SOL     OW18733   4.074   2.760   3.666
 6134SOL    HW118734   4.150   2.804   3.714
 6134SOL    HW218735   4.109   2.713   3.584
 6135SOL     OW18736   5.027   2.700   1.904
 6135SOL    HW118737   5.061   2.607   1.919
 6135SOL    HW218738   5.045   2.727   1.809
 6136SOL     OW18739   4.792   3.195   2.711
 6136SOL    HW118740   4.799   3.111   2.656
 6136SOL    HW218741   4.854   3.264   2.675
 6137SOL     OW18742   4.043   2.672   2.811
 6137SOL    HW118743   4.136   2.708   2.816
 6137SOL    HW218744   4.037   2.587   2.863
 6138SOL     OW18745   4.063   2.371   2.868
 6138SOL    HW118746   4.011   2.288   2.851
 6138SOL    HW218747   4.140   2.376   2.804
 6139SOL     OW18748   4.862   2.242   3.540
 6139SOL    HW118749   4.817   2.305   3.604
 6139SOL    HW218750   4.955   2.273   3.523
 6140SOL     OW18751   4.884   2.069   3.339
 6140SOL    HW118752   4.884   2.133   3.416
 6140SOL    HW218753   4.912   2.117   3.256
 6141SOL     OW18754   3.732   3.188   2.062
 6141SOL    HW118755   3.639   3.209   2.031
 6141SOL    HW218756   3.742   3.089   2.075
 6142SOL     OW18757   3.812   3.663   2.789
 6142SOL    HW118758   3.770   3.577   2.762
 6142SOL    HW218759   3.906   3.666   2.755
 6143SOL     OW18760   4.228   3.430   2.772
 6143SOL    HW118761   4.294   3.504   2.781
 6143SOL    HW218762   4.272   3.351   2.730
 6144SOL     OW18763   4.726   2.658   3.100
 6144SOL    HW118764   4.767   2.626   3.186
 6144SOL    HW218765   4.630   2.631   3.097
 6145SOL     OW18766   3.764   2.406   2.976
 6145SOL    HW118767   3.849   2.373   2.935
 6145SOL    HW218768   3.777   2.421   3.074
 6146SOL     OW18769   3.913   2.382   3.584
 6146SOL    HW118770   3.972   2.342   3.514
 6146SOL    HW218771   3.855   2.453   3.543
 6147SOL     OW18772   5.093   2.812   3.522
 6147SOL    HW118773   5.132   2.901   3.542
 6147SOL    HW218774   5.103   2.792   3.425
 6148SOL     OW18775   4.539   2.434   2.187
 6148SOL    HW118776   4.546   2.345   2.141
 6148SOL    HW218777   4.445   2.468   2.179
 6149SOL     OW18778   3.976   3.426   3.606
 6149SOL    HW118779   3.946   3.483   3.682
 6149SOL    HW218780   3.969   3.329   3.632
 6150SOL     OW18781   4.395   2.326   3.131
 6150SOL    HW118782   4.361   2.237   3.101
 6150SOL    HW218783   4.421   2.380   3.051
 6151SOL     OW18784   4.654   3.540   3.327
 6151SOL    HW118785   4.630   3.522   3.232
 6151SOL    HW218786   4.684   3.634   3.337
 6152SOL     OW18787   4.197   2.362   2.053
 6152SOL    HW118788   4.258   2.442   2.057
 6152SOL    HW218789   4.102   2.393   2.060
 6153SOL     OW18790   3.883   2.999   3.328
 6153SOL    HW118791   3.905   2.938   3.404
 6153SOL    HW218792   3.893   2.950   3.242
 6154SOL     OW18793   5.071   2.921   3.096
 6154SOL    HW118794   5.095   2.858   3.022
 6154SOL    HW218795   4.981   2.961   3.078
 6155SOL     OW18796   5.026   2.717   2.171
 6155SOL    HW118797   4.940   2.686   2.213
 6155SOL    HW218798   5.022   2.703   2.072
 6156SOL     OW18799   4.976   3.593   2.990
 6156SOL    HW118800   5.060   3.598   2.936
 6156SOL    HW218801   4.953   3.497   3.008
 6157SOL     OW18802   3.807   3.120   2.884
 6157SOL    HW118803   3.802   3.119   2.984
 6157SOL    HW218804   3.724   3.079   2.846
 6158SOL     OW18805   4.412   3.524   3.578
 6158SOL    HW118806   4.356   3.605   3.587
 6158SOL    HW218807   4.464   3.528   3.492
 6159SOL     OW18808   5.450   1.997   2.385
 6159SOL    HW118809   5.523   1.980   2.318
 6159SOL    HW218810   5.419   1.910   2.423
 6160SOL     OW18811   5.112   3.435   2.339
 6160SOL    HW118812   5.179   3.447   2.265
 6160SOL    HW218813   5.072   3.524   2.362
 6161SOL     OW18814   3.854   3.656   3.713
 6161SOL    HW118815   3.813   3.582   3.766
 6161SOL    HW218816   3.918   3.707   3.771
 6162SOL     OW18817   5.004   2.789   2.534
 6162SOL    HW118818   5.064   2.708   2.536
 6162SOL    HW218819   5.044   2.858   2.474
 6163SOL     OW18820   4.554   3.135   3.284
 6163SOL    HW118821   4.549   3.168   3.379
 6163SOL    HW218822   4.468   3.154   3.238
 6164SOL     OW18823   4.396   3.478   2.016
 6164SOL    HW118824   4.405   3.488   1.917
 6164SOL    HW218825   4.356   3.389   2.037
 6165SOL     OW18826   3.987   2.188   2.582
 6165SOL    HW118827   3.908   2.239   2.548
 6165SOL    HW218828   3.978   2.173   2.680
 6166SOL     OW18829   4.918   3.474   1.893
 6166SOL    HW118830   4.924   3.381   1.930
 6166SOL    HW218831   4.859   3.474   1.813
 6167SOL     OW18832   4.546   2.864   3.234
 6167SOL    HW118833   4.586   2.863   3.142
 6167SOL    HW218834   4.556   2.956   3.274
 6168SOL     OW18835   4.640   2.772   2.153
 6168SOL    HW118836   4.703   2.810   2.085
 6168SOL    HW218837   4.680   2.689   2.192
 6169SOL     OW18838   4.096   3.150   3.352
 6169SOL    HW118839   4.083   3.243   3.318
 6169SOL    HW218840   4.012   3.098   3.339
 6170SOL     OW18841   4.763   2.960   2.558
 6170SOL    HW118842   4.693   2.913   2.612
 6170SOL    HW218843   4.822   2.892   2.515
 6171SOL     OW18844   4.738   2.098   2.833
 6171SOL    HW118845   4.730   2.062   2.740
 6171SOL    HW218846   4.736   2.022   2.898
 6172SOL     OW18847   4.314   3.349   2.353
 6172SOL    HW118848   4.356   3.291   2.283
 6172SOL    HW218849   4.270   3.428   2.309
 6173SOL     OW18850   3.979   3.210   2.152
 6173SOL    HW118851   3.883   3.211   2.125
 6173SOL    HW218852   3.991   3.263   2.236
 6174SOL     OW18853   3.829   2.875   3.588
 6174SOL    HW118854   3.752   2.842   3.642
 6174SOL    HW218855   3.914   2.845   3.630
 6175SOL     OW18856   4.396   2.065   3.351
 6175SOL    HW118857   4.486   2.049   3.311
 6175SOL    HW218858   4.404   2.070   3.450
 6176SOL     OW18859   3.799   2.207   1.895
 6176SOL    HW118860   3.707   2.179   1.866
 6176SOL    HW218861   3.830   2.284   1.839
 6177SOL     OW18862   5.164   2.718   3.260
 6177SOL    HW118863   5.107   2.770   3.197
 6177SOL    HW218864   5.260   2.730   3.236
 6178SOL     OW18865   3.796   2.028   2.180
 6178SOL    HW118866   3.779   2.111   2.126
 6178SOL    HW218867   3.886   1.991   2.158
 6179SOL     OW18868   4.907   3.197   1.981
 6179SOL    HW118869   4.808   3.186   1.983
 6179SOL    HW218870   4.941   3.212   2.074
 6180SOL     OW18871   4.337   2.704   3.293
 6180SOL    HW118872   4.393   2.785   3.276
 6180SOL    HW218873   4.396   2.624   3.296
 6181SOL     OW18874   4.440   2.427   3.570
 6181SOL    HW118875   4.459   2.492   3.644
 6181SOL    HW218876   4.500   2.347   3.579
 6182SOL     OW18877   5.174   3.082   3.495
 6182SOL    HW118878   5.165   3.072   3.594
 6182SOL    HW218879   5.270   3.075   3.469
 6183SOL     OW18880   4.114   3.603   3.422
 6183SOL    HW118881   4.023   3.644   3.420
 6183SOL    HW218882   4.107   3.509   3.454
 6184SOL     OW18883   4.949   2.187   2.311
 6184SOL    HW118884   5.014   2.113   2.300
 6184SOL    HW218885   4.969   2.237   2.395
 6185SOL     OW18886   4.318   2.607   2.514
 6185SOL    HW118887   4.368   2.692   2.495
 6185SOL    HW218888   4.230   2.609   2.466
 6186SOL     OW18889   4.583   3.236   1.878
 6186SOL    HW118890   4.537   3.251   1.966
 6186SOL    HW218891   4.627   3.321   1.848
 6187SOL     OW18892   4.385   3.652   2.815
 6187SOL    HW118893   4.339   3.740   2.802
 6187SOL    HW218894   4.484   3.664   2.808
 6188SOL     OW18895   4.583   2.818   2.723
 6188SOL    HW118896   4.637   2.749   2.771
 6188SOL    HW218897   4.551   2.887   2.789
 6189SOL     OW18898   4.807   2.846   1.949
 6189SOL    HW118899   4.784   2.899   1.867
 6189SOL    HW218900   4.888   2.790   1.930
 6190SOL     OW18901   3.945   3.176   3.706
 6190SOL    HW118902   3.880   3.103   3.685
 6190SOL    HW218903   3.949   3.190   3.804
 6191SOL     OW18904   3.803   3.102   2.515
 6191SOL    HW118905   3.802   3.055   2.603
 6191SOL    HW218906   3.885   3.074   2.464
 6192SOL     OW18907   4.396   3.253   3.486
 6192SOL    HW118908   4.318   3.203   3.524
 6192SOL    HW218909   4.393   3.348   3.517
 6193SOL     OW18910   4.152   2.286   2.382
 6193SOL    HW118911   4.182   2.214   2.320
 6193SOL    HW218912   4.113   2.246   2.465
 6194SOL     OW18913   5.429   3.349   2.966
 6194SOL    HW118914   5.336   3.324   2.939
 6194SOL    HW218915   5.455   3.299   3.048
 6195SOL     OW18916   4.041   2.409   3.142
 6195SOL    HW118917   4.079   2.350   3.214
 6195SOL    HW218918   4.081   2.383   3.054
 6196SOL     OW18919   4.536   3.448   2.549
 6196SOL    HW118920   4.568   3.458   2.455
 6196SOL    HW218921   4.457   3.386   2.551
 6197SOL     OW18922   5.148   2.076   2.974
 6197SOL    HW118923   5.200   2.011   3.029
 6197SOL    HW218924   5.099   2.139   3.035
 6198SOL     OW18925   4.725   1.896   3.016
 6198SOL    HW118926   4.662   1.824   2.985
 6198SOL    HW218927   4.818   1.860   3.016
 6199SOL     OW18928   4.494   3.192   2.163
 6199SOL    HW118929   4.448   3.105   2.180
 6199SOL    HW218930   4.585   3.189   2.204
 6200SOL     OW18931   4.342   3.429   3.146
 6200SOL    HW118932   4.337   3.511   3.203
 6200SOL    HW218933   4.431   3.426   3.101
 6201SOL     OW18934   5.076   1.914   2.030
 6201SOL    HW118935   5.111   1.873   1.946
 6201SOL    HW218936   4.986   1.876   2.050
 6202SOL     OW18937   5.024   2.315   2.553
 6202SOL    HW118938   4.965   2.395   2.557
 6202SOL    HW218939   5.039   2.280   2.646
 6203SOL     OW18940   5.317   2.083   2.744
 6203SOL    HW118941   5.233   2.082   2.798
 6203SOL    HW218942   5.319   2.166   2.688
 6204SOL     OW18943   3.763   2.939   2.162
 6204SOL    HW118944   3.862   2.928   2.153
 6204SOL    HW218945   3.723   2.853   2.194
 6205SOL     OW18946   4.599   3.508   2.199
 6205SOL    HW118947   4.522   3.473   2.145
 6205SOL    HW218948   4.567   3.579   2.261
 6206SOL     OW18949   3.954   2.490   3.837
 6206SOL    HW118950   3.861   2.488   3.874
 6206SOL    HW218951   3.955   2.451   3.745
 6207SOL     OW18952   3.949   2.137   4.720
 6207SOL    HW118953   3.984   2.120   4.812
 6207SOL    HW218954   3.861   2.092   4.708
 6208SOL     OW18955   3.743   2.230   4.371
 6208SOL    HW118956   3.661   2.273   4.410
 6208SOL    HW218957   3.715   2.157   4.308
 6209SOL     OW18958   4.293   3.137   4.889
 6209SOL    HW118959   4.200   3.130   4.852
 6209SOL    HW218960   4.304   3.226   4.933
 6210SOL     OW18961   5.279   3.373   4.427
 6210SOL    HW118962   5.222   3.357   4.508
 6210SOL    HW218963   5.220   3.383   4.347
 6211SOL     OW18964   4.859   2.565   4.441
 6211SOL    HW118965   4.916   2.643   4.416
 6211SOL    HW218966   4.799   2.591   4.517
 6212SOL     OW18967   4.492   3.006   4.747
 6212SOL    HW118968   4.414   3.023   4.807
 6212SOL    HW218969   4.526   3.093   4.711
 6213SOL     OW18970   4.574   2.660   5.547
 6213SOL    HW118971   4.570   2.736   5.612
 6213SOL    HW218972   4.596   2.696   5.456
 6214SOL     OW18973   4.409   2.874   4.389
 6214SOL    HW118974   4.478   2.858   4.459
 6214SOL    HW218975   4.336   2.931   4.427
 6215SOL     OW18976   4.410   3.023   5.527
 6215SOL    HW118977   4.470   3.102   5.541
 6215SOL    HW218978   4.324   3.054   5.486
 6216SOL     OW18979   4.059   3.297   4.785
 6216SOL    HW118980   3.981   3.266   4.732
 6216SOL    HW218981   4.117   3.355   4.728
 6217SOL     OW18982   5.184   3.367   5.063
 6217SOL    HW118983   5.208   3.461   5.089
 6217SOL    HW218984   5.168   3.313   5.145
 6218SOL     OW18985   4.162   2.254   5.223
 6218SOL    HW118986   4.244   2.198   5.232
 6218SOL    HW218987   4.081   2.196   5.227
 6219SOL     OW18988   3.955   3.575   4.207
 6219SOL    HW118989   3.989   3.652   4.261
 6219SOL    HW218990   3.999   3.575   4.117
 6220SOL     OW18991   4.851   3.203   5.414
 6220SOL    HW118992   4.898   3.203   5.502
 6220SOL    HW218993   4.803   3.116   5.403
 6221SOL     OW18994   3.954   3.296   4.262
 6221SOL    HW118995   3.928   3.392   4.262
 6221SOL    HW218996   3.883   3.242   4.307
 6222SOL     OW18997   3.964   2.953   4.610
 6222SOL    HW118998   3.978   2.869   4.662
 6222SOL    HW218999   3.909   3.017   4.665
 6223SOL     OW19000   4.344   3.648   5.163
 6223SOL    HW119001   4.252   3.631   5.198
 6223SOL    HW219002   4.372   3.740   5.189
 6224SOL     OW19003   4.330   2.826   3.847
 6224SOL    HW119004   4.337   2.910   3.793
 6224SOL    HW219005   4.376   2.839   3.935
 6225SOL     OW19006   3.846   2.505   4.287
 6225SOL    HW119007   3.801   2.417   4.304
 6225SOL    HW219008   3.845   2.559   4.371
 6226SOL     OW19009   3.751   3.458   3.841
 6226SOL    HW119010   3.732   3.362   3.862
 6226SOL    HW219011   3.718   3.516   3.916
 6227SOL     OW19012   5.413   2.784   4.336
 6227SOL    HW119013   5.508   2.755   4.344
 6227SOL    HW219014   5.405   2.849   4.261
 6228SOL     OW19015   3.837   2.599   5.321
 6228SOL    HW119016   3.925   2.586   5.366
 6228SOL    HW219017   3.824   2.696   5.299
 6229SOL     OW19018   4.337   3.227   4.450
 6229SOL    HW119019   4.288   3.140   4.459
 6229SOL    HW219020   4.314   3.270   4.363
 6230SOL     OW19021   5.017   3.090   5.147
 6230SOL    HW119022   5.054   3.017   5.089
 6230SOL    HW219023   5.069   3.095   5.232
 6231SOL     OW19024   4.533   1.866   4.226
 6231SOL    HW119025   4.573   1.957   4.217
 6231SOL    HW219026   4.433   1.874   4.232
 6232SOL     OW19027   3.921   2.838   4.988
 6232SOL    HW119028   4.010   2.793   4.974
 6232SOL    HW219029   3.848   2.773   4.969
 6233SOL     OW19030   4.911   3.654   5.340
 6233SOL    HW119031   4.935   3.714   5.264
 6233SOL    HW219032   4.918   3.559   5.310
 6234SOL     OW19033   4.041   2.113   5.525
 6234SOL    HW119034   4.112   2.184   5.531
 6234SOL    HW219035   3.953   2.152   5.553
 6235SOL     OW19036   5.190   3.279   4.677
 6235SOL    HW119037   5.131   3.285   4.757
 6235SOL    HW219038   5.175   3.191   4.631
 6236SOL     OW19039   4.322   2.591   3.994
 6236SOL    HW119040   4.346   2.660   3.926
 6236SOL    HW219041   4.244   2.624   4.048
 6237SOL     OW19042   5.005   2.207   4.668
 6237SOL    HW119043   4.919   2.157   4.655
 6237SOL    HW219044   5.067   2.153   4.724
 6238SOL     OW19045   4.531   2.467   5.189
 6238SOL    HW119046   4.484   2.464   5.278
 6238SOL    HW219047   4.480   2.412   5.123
 6239SOL     OW19048   5.118   2.331   5.398
 6239SOL    HW119049   5.098   2.374   5.486
 6239SOL    HW219050   5.196   2.269   5.407
 6240SOL     OW19051   4.697   2.752   5.296
 6240SOL    HW119052   4.743   2.668   5.267
 6240SOL    HW219053   4.641   2.786   5.221
 6241SOL     OW19054   4.715   2.272   4.966
 6241SOL    HW119055   4.638   2.306   5.020
 6241SOL    HW219056   4.681   2.221   4.887
 6242SOL     OW19057   4.765   2.563   4.153
 6242SOL    HW119058   4.791   2.559   4.249
 6242SOL    HW219059   4.680   2.512   4.139
 6243SOL     OW19060   3.800   2.673   4.513
 6243SOL    HW119061   3.899   2.661   4.522
 6243SOL    HW219062   3.776   2.768   4.534
 6244SOL     OW19063   3.854   3.683   5.295
 6244SOL    HW119064   3.844   3.668   5.394
 6244SOL    HW219065   3.768   3.719   5.259
 6245SOL     OW19066   4.589   2.210   3.919
 6245SOL    HW119067   4.648   2.273   3.870
 6245SOL    HW219068   4.608   2.116   3.890
 6246SOL     OW19069   5.086   3.006   4.269
 6246SOL    HW119070   5.169   2.977   4.221
 6246SOL    HW219071   5.037   3.073   4.213
 6247SOL     OW19072   4.274   2.058   4.609
 6247SOL    HW119073   4.269   2.053   4.709
 6247SOL    HW219074   4.276   2.154   4.580
 6248SOL     OW19075   4.732   3.318   4.201
 6248SOL    HW119076   4.686   3.390   4.149
 6248SOL    HW219077   4.728   3.338   4.299
 6249SOL     OW19078   4.075   3.663   4.577
 6249SOL    HW119079   4.125   3.577   4.583
 6249SOL    HW219080   4.140   3.740   4.574
 6250SOL     OW19081   4.951   3.412   5.230
 6250SOL    HW119082   4.957   3.335   5.294
 6250SOL    HW219083   4.899   3.386   5.150
 6251SOL     OW19084   4.045   2.805   3.966
 6251SOL    HW119085   4.127   2.844   3.924
 6251SOL    HW219086   4.018   2.723   3.917
 6252SOL     OW19087   4.185   3.128   5.451
 6252SOL    HW119088   4.135   3.129   5.365
 6252SOL    HW219089   4.122   3.110   5.527
 6253SOL     OW19090   4.835   3.638   3.961
 6253SOL    HW119091   4.775   3.576   4.011
 6253SOL    HW219092   4.866   3.594   3.876
 6254SOL     OW19093   3.926   2.147   5.222
 6254SOL    HW119094   3.846   2.207   5.209
 6254SOL    HW219095   3.916   2.098   5.308
 6255SOL     OW19096   4.188   3.605   4.047
 6255SOL    HW119097   4.221   3.644   4.133
 6255SOL    HW219098   4.264   3.598   3.982
 6256SOL     OW19099   5.124   1.969   4.150
 6256SOL    HW119100   5.100   1.932   4.060
 6256SOL    HW219101   5.223   1.985   4.154
 6257SOL     OW19102   3.973   3.647   4.965
 6257SOL    HW119103   4.030   3.582   5.015
 6257SOL    HW219104   3.957   3.614   4.872
 6258SOL     OW19105   4.664   3.560   4.628
 6258SOL    HW119106   4.744   3.503   4.649
 6258SOL    HW219107   4.615   3.520   4.551
 6259SOL     OW19108   4.106   2.562   4.204
 6259SOL    HW119109   4.151   2.472   4.201
 6259SOL    HW219110   4.012   2.551   4.237
 6260SOL     OW19111   4.338   1.984   3.841
 6260SOL    HW119112   4.436   1.962   3.848
 6260SOL    HW219113   4.307   1.967   3.748
 6261SOL     OW19114   4.505   2.126   5.473
 6261SOL    HW119115   4.572   2.065   5.516
 6261SOL    HW219116   4.432   2.145   5.538
 6262SOL     OW19117   4.612   3.376   4.919
 6262SOL    HW119118   4.589   3.351   4.825
 6262SOL    HW219119   4.673   3.307   4.958
 6263SOL     OW19120   5.075   2.452   5.157
 6263SOL    HW119121   5.103   2.409   5.242
 6263SOL    HW219122   5.100   2.548   5.158
 6264SOL     OW19123   4.527   3.264   4.648
 6264SOL    HW119124   4.617   3.278   4.606
 6264SOL    HW219125   4.456   3.266   4.577
 6265SOL     OW19126   4.646   2.365   4.623
 6265SOL    HW119127   4.621   2.356   4.527
 6265SOL    HW219128   4.694   2.283   4.654
 6266SOL     OW19129   4.263   1.926   4.236
 6266SOL    HW119130   4.182   1.927   4.294
 6266SOL    HW219131   4.266   2.009   4.181
 6267SOL     OW19132   5.158   3.050   3.765
 6267SOL    HW119133   5.190   2.974   3.822
 6267SOL    HW219134   5.066   3.077   3.795
 6268SOL     OW19135   4.021   1.897   3.895
 6268SOL    HW119136   4.070   1.981   3.874
 6268SOL    HW219137   4.083   1.832   3.940
 6269SOL     OW19138   4.659   2.098   4.204
 6269SOL    HW119139   4.611   2.139   4.126
 6269SOL    HW219140   4.758   2.096   4.185
 6270SOL     OW19141   4.800   2.545   5.188
 6270SOL    HW119142   4.720   2.484   5.191
 6270SOL    HW219143   4.881   2.492   5.164
 6271SOL     OW19144   4.951   3.432   4.517
 6271SOL    HW119145   4.972   3.506   4.452
 6271SOL    HW219146   5.019   3.432   4.590
 6272SOL     OW19147   4.183   3.014   4.465
 6272SOL    HW119148   4.112   2.987   4.530
 6272SOL    HW219149   4.157   2.986   4.372
 6273SOL     OW19150   4.995   3.659   4.315
 6273SOL    HW119151   5.039   3.723   4.251
 6273SOL    HW219152   4.945   3.711   4.385
 6274SOL     OW19153   4.756   2.411   3.740
 6274SOL    HW119154   4.715   2.493   3.701
 6274SOL    HW219155   4.820   2.437   3.813
 6275SOL     OW19156   3.802   2.418   5.110
 6275SOL    HW119157   3.894   2.417   5.069
 6275SOL    HW219158   3.796   2.492   5.177
 6276SOL     OW19159   4.285   2.084   4.871
 6276SOL    HW119160   4.323   2.000   4.908
 6276SOL    HW219161   4.197   2.103   4.915
 6277SOL     OW19162   4.590   2.316   4.366
 6277SOL    HW119163   4.558   2.388   4.304
 6277SOL    HW219164   4.614   2.235   4.313
 6278SOL     OW19165   4.741   1.901   4.477
 6278SOL    HW119166   4.669   1.906   4.408
 6278SOL    HW219167   4.717   1.832   4.546
 6279SOL     OW19168   5.153   3.035   4.591
 6279SOL    HW119169   5.098   2.951   4.584
 6279SOL    HW219170   5.179   3.064   4.499
 6280SOL     OW19171   4.212   3.247   3.898
 6280SOL    HW119172   4.125   3.232   3.945
 6280SOL    HW219173   4.195   3.273   3.803
 6281SOL     OW19174   5.114   2.437   3.802
 6281SOL    HW119175   5.060   2.416   3.883
 6281SOL    HW219176   5.205   2.396   3.811
 6282SOL     OW19177   4.251   2.118   4.052
 6282SOL    HW119178   4.278   2.059   3.977
 6282SOL    HW219179   4.251   2.213   4.021
 6283SOL     OW19180   4.788   3.209   5.064
 6283SOL    HW119181   4.708   3.186   5.119
 6283SOL    HW219182   4.871   3.183   5.113
 6284SOL     OW19183   5.316   3.491   5.349
 6284SOL    HW119184   5.343   3.525   5.259
 6284SOL    HW219185   5.395   3.453   5.395
 6285SOL     OW19186   4.835   3.057   4.824
 6285SOL    HW119187   4.795   3.101   4.905
 6285SOL    HW219188   4.794   3.094   4.741
 6286SOL     OW19189   4.639   1.951   5.126
 6286SOL    HW119190   4.664   1.931   5.031
 6286SOL    HW219191   4.711   2.007   5.168
 6287SOL     OW19192   4.704   2.978   5.443
 6287SOL    HW119193   4.605   2.984   5.453
 6287SOL    HW219194   4.727   2.898   5.387
 6288SOL     OW19195   4.429   2.912   4.092
 6288SOL    HW119196   4.415   2.919   4.191
 6288SOL    HW219197   4.513   2.861   4.074
 6289SOL     OW19198   4.134   2.675   4.975
 6289SOL    HW119199   4.220   2.687   5.025
 6289SOL    HW219200   4.092   2.588   5.002
 6290SOL     OW19201   4.998   2.248   4.986
 6290SOL    HW119202   5.019   2.322   5.050
 6290SOL    HW219203   4.909   2.265   4.943
 6291SOL     OW19204   3.788   3.426   5.055
 6291SOL    HW119205   3.742   3.508   5.021
 6291SOL    HW219206   3.886   3.445   5.064
 6292SOL     OW19207   4.091   2.962   4.225
 6292SOL    HW119208   4.084   3.045   4.169
 6292SOL    HW219209   4.095   2.882   4.165
 6293SOL     OW19210   4.290   2.399   4.589
 6293SOL    HW119211   4.302   2.465   4.515
 6293SOL    HW219212   4.336   2.433   4.672
 6294SOL     OW19213   4.976   3.210   4.112
 6294SOL    HW119214   5.026   3.287   4.152
 6294SOL    HW219215   4.881   3.212   4.144
 6295SOL     OW19216   4.996   3.307   4.866
 6295SOL    HW119217   5.043   3.320   4.953
 6295SOL    HW219218   4.930   3.233   4.875
 6296SOL     OW19219   4.078   3.372   5.053
 6296SOL    HW119220   4.057   3.328   4.966
 6296SOL    HW219221   4.175   3.398   5.056
 6297SOL     OW19222   4.126   2.613   5.322
 6297SOL    HW119223   4.194   2.668   5.275
 6297SOL    HW219224   4.166   2.525   5.349
 6298SOL     OW19225   4.737   1.967   5.494
 6298SOL    HW119226   4.743   2.052   5.442
 6298SOL    HW219227   4.769   1.891   5.437
 6299SOL     OW19228   4.228   1.912   5.464
 6299SOL    HW119229   4.186   1.855   5.394
 6299SOL    HW219230   4.162   1.981   5.496
 6300SOL     OW19231   4.297   2.732   4.753
 6300SOL    HW119232   4.341   2.821   4.744
 6300SOL    HW219233   4.234   2.732   4.830
 6301SOL     OW19234   5.084   2.724   4.769
 6301SOL    HW119235   5.009   2.724   4.703
 6301SOL    HW219236   5.121   2.632   4.778
 6302SOL     OW19237   4.933   2.387   3.999
 6302SOL    HW119238   4.946   2.303   4.053
 6302SOL    HW219239   4.904   2.461   4.059
 6303SOL     OW19240   4.031   2.075   4.955
 6303SOL    HW119241   4.008   2.112   5.045
 6303SOL    HW219242   4.001   1.980   4.949
 6304SOL     OW19243   3.761   3.172   5.006
 6304SOL    HW119244   3.814   3.123   5.074
 6304SOL    HW219245   3.783   3.270   5.011
 6305SOL     OW19246   4.456   2.496   4.788
 6305SOL    HW119247   4.515   2.470   4.712
 6305SOL    HW219248   4.428   2.592   4.777
 6306SOL     OW19249   4.031   1.925   4.342
 6306SOL    HW119250   4.020   2.019   4.375
 6306SOL    HW219251   4.026   1.862   4.419
 6307SOL     OW19252   5.346   2.229   4.098
 6307SOL    HW119253   5.348   2.153   4.162
 6307SOL    HW219254   5.298   2.306   4.138
 6308SOL     OW19255   4.747   2.628   4.690
 6308SOL    HW119256   4.762   2.649   4.786
 6308SOL    HW219257   4.717   2.533   4.681
 6309SOL     OW19258   4.704   3.435   5.424
 6309SOL    HW119259   4.684   3.479   5.336
 6309SOL    HW219260   4.743   3.344   5.408
 6310SOL     OW19261   4.074   2.760   5.528
 6310SOL    HW119262   4.150   2.804   5.576
 6310SOL    HW219263   4.109   2.713   5.446
 6311SOL     OW19264   5.027   2.700   3.766
 6311SOL    HW119265   5.061   2.607   3.781
 6311SOL    HW219266   5.045   2.727   3.671
 6312SOL     OW19267   4.792   3.195   4.573
 6312SOL    HW119268   4.799   3.111   4.518
 6312SOL    HW219269   4.854   3.264   4.537
 6313SOL     OW19270   4.043   2.672   4.673
 6313SOL    HW119271   4.136   2.708   4.678
 6313SOL    HW219272   4.037   2.587   4.725
 6314SOL     OW19273   4.063   2.371   4.730
 6314SOL    HW119274   4.011   2.288   4.713
 6314SOL    HW219275   4.140   2.376   4.666
 6315SOL     OW19276   4.862   2.242   5.402
 6315SOL    HW119277   4.817   2.305   5.466
 6315SOL    HW219278   4.955   2.273   5.385
 6316SOL     OW19279   4.884   2.069   5.201
 6316SOL    HW119280   4.884   2.133   5.278
 6316SOL    HW219281   4.912   2.117   5.118
 6317SOL     OW19282   3.732   3.188   3.924
 6317SOL    HW119283   3.639   3.209   3.893
 6317SOL    HW219284   3.742   3.089   3.937
 6318SOL     OW19285   3.812   3.663   4.651
 6318SOL    HW119286   3.770   3.577   4.624
 6318SOL    HW219287   3.906   3.666   4.617
 6319SOL     OW19288   4.228   3.430   4.634
 6319SOL    HW119289   4.294   3.504   4.643
 6319SOL    HW219290   4.272   3.351   4.592
 6320SOL     OW19291   4.726   2.658   4.962
 6320SOL    HW119292   4.767   2.626   5.048
 6320SOL    HW219293   4.630   2.631   4.959
 6321SOL     OW19294   3.764   2.406   4.838
 6321SOL    HW119295   3.849   2.373   4.797
 6321SOL    HW219296   3.777   2.421   4.936
 6322SOL     OW19297   3.913   2.382   5.446
 6322SOL    HW119298   3.972   2.342   5.376
 6322SOL    HW219299   3.855   2.453   5.405
 6323SOL     OW19300   5.093   2.812   5.384
 6323SOL    HW119301   5.132   2.901   5.404
 6323SOL    HW219302   5.103   2.792   5.287
 6324SOL     OW19303   4.539   2.434   4.049
 6324SOL    HW119304   4.546   2.345   4.003
 6324SOL    HW219305   4.445   2.468   4.041
 6325SOL     OW19306   3.976   3.426   5.468
 6325SOL    HW119307   3.946   3.483   5.544
 6325SOL    HW219308   3.969   3.329   5.494
 6326SOL     OW19309   4.395   2.326   4.993
 6326SOL    HW119310   4.361   2.237   4.963
 6326SOL    HW219311   4.421   2.380   4.913
 6327SOL     OW19312   4.654   3.540   5.189
 6327SOL    HW119313   4.630   3.522   5.094
 6327SOL    HW219314   4.684   3.634   5.199
 6328SOL     OW19315   4.197   2.362   3.915
 6328SOL    HW119316   4.258   2.442   3.919
 6328SOL    HW219317   4.102   2.393   3.922
 6329SOL     OW19318   3.883   2.999   5.190
 6329SOL    HW119319   3.905   2.938   5.266
 6329SOL    HW219320   3.893   2.950   5.104
 6330SOL     OW19321   5.071   2.921   4.958
 6330SOL    HW119322   5.095   2.858   4.884
 6330SOL    HW219323   4.981   2.961   4.940
 6331SOL     OW19324   5.026   2.717   4.033
 6331SOL    HW119325   4.940   2.686   4.075
 6331SOL    HW219326   5.022   2.703   3.934
 6332SOL     OW19327   4.976   3.593   4.852
 6332SOL    HW119328   5.060   3.598   4.798
 6332SOL    HW219329   4.953   3.497   4.870
 6333SOL     OW19330   3.807   3.120   4.746
 6333SOL    HW119331   3.802   3.119   4.846
 6333SOL    HW219332   3.724   3.079   4.708
 6334SOL     OW19333   4.412   3.524   5.440
 6334SOL    HW119334   4.356   3.605   5.449
 6334SOL    HW219335   4.464   3.528   5.354
 6335SOL     OW19336   5.450   1.997   4.247
 6335SOL    HW119337   5.523   1.980   4.180
 6335SOL    HW219338   5.419   1.910   4.285
 6336SOL     OW19339   5.112   3.435   4.201
 6336SOL    HW119340   5.179   3.447   4.127
 6336SOL    HW219341   5.072   3.524   4.224
 6337SOL     OW19342   3.854   3.656   5.575
 6337SOL    HW119343   3.813   3.582   5.628
 6337SOL    HW219344   3.918   3.707   5.633
 6338SOL     OW19345   5.004   2.789   4.396
 6338SOL    HW119346   5.064   2.708   4.398
 6338SOL    HW219347   5.044   2.858   4.336
 6339SOL     OW19348   4.554   3.135   5.146
 6339SOL    HW119349   4.549   3.168   5.241
 6339SOL    HW219350   4.468   3.154   5.100
 6340SOL     OW19351   4.396   3.478   3.878
 6340SOL    HW119352   4.405   3.488   3.779
 6340SOL    HW219353   4.356   3.389   3.899
 6341SOL     OW19354   3.987   2.188   4.444
 6341SOL    HW119355   3.908   2.239   4.410
 6341SOL    HW219356   3.978   2.173   4.542
 6342SOL     OW19357   4.918   3.474   3.755
 6342SOL    HW119358   4.924   3.381   3.792
 6342SOL    HW219359   4.859   3.474   3.675
 6343SOL     OW19360   4.546   2.864   5.096
 6343SOL    HW119361   4.586   2.863   5.004
 6343SOL    HW219362   4.556   2.956   5.136
 6344SOL     OW19363   4.640   2.772   4.015
 6344SOL    HW119364   4.703   2.810   3.947
 6344SOL    HW219365   4.680   2.689   4.054
 6345SOL     OW19366   4.096   3.150   5.214
 6345SOL    HW119367   4.083   3.243   5.180
 6345SOL    HW219368   4.012   3.098   5.201
 6346SOL     OW19369   4.763   2.960   4.420
 6346SOL    HW119370   4.693   2.913   4.474
 6346SOL    HW219371   4.822   2.892   4.377
 6347SOL     OW19372   4.738   2.098   4.695
 6347SOL    HW119373   4.730   2.062   4.602
 6347SOL    HW219374   4.736   2.022   4.760
 6348SOL     OW19375   4.314   3.349   4.215
 6348SOL    HW119376   4.356   3.291   4.145
 6348SOL    HW219377   4.270   3.428   4.171
 6349SOL     OW19378   3.979   3.210   4.014
 6349SOL    HW119379   3.883   3.211   3.987
 6349SOL    HW219380   3.991   3.263   4.098
 6350SOL     OW19381   3.829   2.875   5.450
 6350SOL    HW119382   3.752   2.842   5.504
 6350SOL    HW219383   3.914   2.845   5.492
 6351SOL     OW19384   4.396   2.065   5.213
 6351SOL    HW119385   4.486   2.049   5.173
 6351SOL    HW219386   4.404   2.070   5.312
 6352SOL     OW19387   3.799   2.207   3.757
 6352SOL    HW119388   3.707   2.179   3.728
 6352SOL    HW219389   3.830   2.284   3.701
 6353SOL     OW19390   5.164   2.718   5.122
 6353SOL    HW119391   5.107   2.770   5.059
 6353SOL    HW219392   5.260   2.730   5.098
 6354SOL     OW19393   3.796   2.028   4.042
 6354SOL    HW119394   3.779   2.111   3.988
 6354SOL    HW219395   3.886   1.991   4.020
 6355SOL     OW19396   4.907   3.197   3.843
 6355SOL    HW119397   4.808   3.186   3.845
 6355SOL    HW219398   4.941   3.212   3.936
 6356SOL     OW19399   4.337   2.704   5.155
 6356SOL    HW119400   4.393   2.785   5.138
 6356SOL    HW219401   4.396   2.624   5.158
 6357SOL     OW19402   4.440   2.427   5.432
 6357SOL    HW119403   4.459   2.492   5.506
 6357SOL    HW219404   4.500   2.347   5.441
 6358SOL     OW19405   5.174   3.082   5.357
 6358SOL    HW119406   5.165   3.072   5.456
 6358SOL    HW219407   5.270   3.075   5.331
 6359SOL     OW19408   4.114   3.603   5.284
 6359SOL    HW119409   4.023   3.644   5.282
 6359SOL    HW219410   4.107   3.509   5.316
 6360SOL     OW19411   4.949   2.187   4.173
 6360SOL    HW119412   5.014   2.113   4.162
 6360SOL    HW219413   4.969   2.237   4.257
 6361SOL     OW19414   4.318   2.607   4.376
 6361SOL    HW119415   4.368   2.692   4.357
 6361SOL    HW219416   4.230   2.609   4.328
 6362SOL     OW19417   4.583   3.236   3.740
 6362SOL    HW119418   4.537   3.251   3.828
 6362SOL    HW219419   4.627   3.321   3.710
 6363SOL     OW19420   4.385   3.652   4.677
 6363SOL    HW119421   4.339   3.740   4.664
 6363SOL    HW219422   4.484   3.664   4.670
 6364SOL     OW19423   4.583   2.818   4.585
 6364SOL    HW119424   4.637   2.749   4.633
 6364SOL    HW219425   4.551   2.887   4.651
 6365SOL     OW19426   4.807   2.846   3.811
 6365SOL    HW119427   4.784   2.899   3.729
 6365SOL    HW219428   4.888   2.790   3.792
 6366SOL     OW19429   3.945   3.176   5.568
 6366SOL    HW119430   3.880   3.103   5.547
 6366SOL    HW219431   3.949   3.190   5.666
 6367SOL     OW19432   3.803   3.102   4.377
 6367SOL    HW119433   3.802   3.055   4.465
 6367SOL    HW219434   3.885   3.074   4.326
 6368SOL     OW19435   4.396   3.253   5.348
 6368SOL    HW119436   4.318   3.203   5.386
 6368SOL    HW219437   4.393   3.348   5.379
 6369SOL     OW19438   4.152   2.286   4.244
 6369SOL    HW119439   4.182   2.214   4.182
 6369SOL    HW219440   4.113   2.246   4.327
 6370SOL     OW19441   5.429   3.349   4.828
 6370SOL    HW119442   5.336   3.324   4.801
 6370SOL    HW219443   5.455   3.299   4.910
 6371SOL     OW19444   4.041   2.409   5.004
 6371SOL    HW119445   4.079   2.350   5.076
 6371SOL    HW219446   4.081   2.383   4.916
 6372SOL     OW19447   4.536   3.448   4.411
 6372SOL    HW119448   4.568   3.458   4.317
 6372SOL    HW219449   4.457   3.386   4.413
 6373SOL     OW19450   5.148   2.076   4.836
 6373SOL    HW119451   5.200   2.011   4.891
 6373SOL    HW219452   5.099   2.139   4.897
 6374SOL     OW19453   4.725   1.896   4.878
 6374SOL    HW119454   4.662   1.824   4.847
 6374SOL    HW219455   4.818   1.860   4.878
 6375SOL     OW19456   4.494   3.192   4.025
 6375SOL    HW119457   4.448   3.105   4.042
 6375SOL    HW219458   4.585   3.189   4.066
 6376SOL     OW19459   4.342   3.429   5.008
 6376SOL    HW119460   4.337   3.511   5.065
 6376SOL    HW219461   4.431   3.426   4.963
 6377SOL     OW19462   5.076   1.914   3.892
 6377SOL    HW119463   5.111   1.873   3.808
 6377SOL    HW219464   4.986   1.876   3.912
 6378SOL     OW19465   5.024   2.315   4.415
 6378SOL    HW119466   4.965   2.395   4.419
 6378SOL    HW219467   5.039   2.280   4.508
 6379SOL     OW19468   5.317   2.083   4.606
 6379SOL    HW119469   5.233   2.082   4.660
 6379SOL    HW219470   5.319   2.166   4.550
 6380SOL     OW19471   3.763   2.939   4.024
 6380SOL    HW119472   3.862   2.928   4.015
 6380SOL    HW219473   3.723   2.853   4.056
 6381SOL     OW19474   4.599   3.508   4.061
 6381SOL    HW119475   4.522   3.473   4.007
 6381SOL    HW219476   4.567   3.579   4.123
 6382SOL     OW19477   3.954   2.490   5.699
 6382SOL    HW119478   3.861   2.488   5.736
 6382SOL    HW219479   3.955   2.451   5.607
 6383SOL     OW19480   3.949   2.137   6.582
 6383SOL    HW119481   3.984   2.120   6.674
 6383SOL    HW219482   3.861   2.092   6.570
 6384SOL     OW19483   3.743   2.230   6.233
 6384SOL    HW119484   3.661   2.273   6.272
 6384SOL    HW219485   3.715   2.157   6.170
 6385SOL     OW19486   4.293   3.137   6.751
 6385SOL    HW119487   4.200   3.130   6.714
 6385SOL    HW219488   4.304   3.226   6.795
 6386SOL     OW19489   5.279   3.373   6.289
 6386SOL    HW119490   5.222   3.357   6.370
 6386SOL    HW219491   5.220   3.383   6.209
 6387SOL     OW19492   4.859   2.565   6.303
 6387SOL    HW119493   4.916   2.643   6.278
 6387SOL    HW219494   4.799   2.591   6.379
 6388SOL     OW19495   4.492   3.006   6.609
 6388SOL    HW119496   4.414   3.023   6.669
 6388SOL    HW219497   4.526   3.093   6.573
 6389SOL     OW19498   4.574   2.660   7.409
 6389SOL    HW119499   4.570   2.736   7.474
 6389SOL    HW219500   4.596   2.696   7.318
 6390SOL     OW19501   4.409   2.874   6.251
 6390SOL    HW119502   4.478   2.858   6.321
 6390SOL    HW219503   4.336   2.931   6.289
 6391SOL     OW19504   4.410   3.023   7.389
 6391SOL    HW119505   4.470   3.102   7.403
 6391SOL    HW219506   4.324   3.054   7.348
 6392SOL     OW19507   4.059   3.297   6.647
 6392SOL    HW119508   3.981   3.266   6.594
 6392SOL    HW219509   4.117   3.355   6.590
 6393SOL     OW19510   5.184   3.367   6.925
 6393SOL    HW119511   5.208   3.461   6.951
 6393SOL    HW219512   5.168   3.313   7.007
 6394SOL     OW19513   4.162   2.254   7.085
 6394SOL    HW119514   4.244   2.198   7.094
 6394SOL    HW219515   4.081   2.196   7.089
 6395SOL     OW19516   3.955   3.575   6.069
 6395SOL    HW119517   3.989   3.652   6.123
 6395SOL    HW219518   3.999   3.575   5.979
 6396SOL     OW19519   4.851   3.203   7.276
 6396SOL    HW119520   4.898   3.203   7.364
 6396SOL    HW219521   4.803   3.116   7.265
 6397SOL     OW19522   3.954   3.296   6.124
 6397SOL    HW119523   3.928   3.392   6.124
 6397SOL    HW219524   3.883   3.242   6.169
 6398SOL     OW19525   3.964   2.953   6.472
 6398SOL    HW119526   3.978   2.869   6.524
 6398SOL    HW219527   3.909   3.017   6.527
 6399SOL     OW19528   4.344   3.648   7.025
 6399SOL    HW119529   4.252   3.631   7.060
 6399SOL    HW219530   4.372   3.740   7.051
 6400SOL     OW19531   4.330   2.826   5.709
 6400SOL    HW119532   4.337   2.910   5.655
 6400SOL    HW219533   4.376   2.839   5.797
 6401SOL     OW19534   3.846   2.505   6.149
 6401SOL    HW119535   3.801   2.417   6.166
 6401SOL    HW219536   3.845   2.559   6.233
 6402SOL     OW19537   3.751   3.458   5.703
 6402SOL    HW119538   3.732   3.362   5.724
 6402SOL    HW219539   3.718   3.516   5.778
 6403SOL     OW19540   5.413   2.784   6.198
 6403SOL    HW119541   5.508   2.755   6.206
 6403SOL    HW219542   5.405   2.849   6.123
 6404SOL     OW19543   3.837   2.599   7.183
 6404SOL    HW119544   3.925   2.586   7.228
 6404SOL    HW219545   3.824   2.696   7.161
 6405SOL     OW19546   4.337   3.227   6.312
 6405SOL    HW119547   4.288   3.140   6.321
 6405SOL    HW219548   4.314   3.270   6.225
 6406SOL     OW19549   5.017   3.090   7.009
 6406SOL    HW119550   5.054   3.017   6.951
 6406SOL    HW219551   5.069   3.095   7.094
 6407SOL     OW19552   4.533   1.866   6.088
 6407SOL    HW119553   4.573   1.957   6.079
 6407SOL    HW219554   4.433   1.874   6.094
 6408SOL     OW19555   3.921   2.838   6.850
 6408SOL    HW119556   4.010   2.793   6.836
 6408SOL    HW219557   3.848   2.773   6.831
 6409SOL     OW19558   4.911   3.654   7.202
 6409SOL    HW119559   4.935   3.714   7.126
 6409SOL    HW219560   4.918   3.559   7.172
 6410SOL     OW19561   4.041   2.113   7.387
 6410SOL    HW119562   4.112   2.184   7.393
 6410SOL    HW219563   3.953   2.152   7.415
 6411SOL     OW19564   5.190   3.279   6.539
 6411SOL    HW119565   5.131   3.285   6.619
 6411SOL    HW219566   5.175   3.191   6.493
 6412SOL     OW19567   4.322   2.591   5.856
 6412SOL    HW119568   4.346   2.660   5.788
 6412SOL    HW219569   4.244   2.624   5.910
 6413SOL     OW19570   5.005   2.207   6.530
 6413SOL    HW119571   4.919   2.157   6.517
 6413SOL    HW219572   5.067   2.153   6.586
 6414SOL     OW19573   4.531   2.467   7.051
 6414SOL    HW119574   4.484   2.464   7.140
 6414SOL    HW219575   4.480   2.412   6.985
 6415SOL     OW19576   5.118   2.331   7.260
 6415SOL    HW119577   5.098   2.374   7.348
 6415SOL    HW219578   5.196   2.269   7.269
 6416SOL     OW19579   4.697   2.752   7.158
 6416SOL    HW119580   4.743   2.668   7.129
 6416SOL    HW219581   4.641   2.786   7.083
 6417SOL     OW19582   4.715   2.272   6.828
 6417SOL    HW119583   4.638   2.306   6.882
 6417SOL    HW219584   4.681   2.221   6.749
 6418SOL     OW19585   4.765   2.563   6.015
 6418SOL    HW119586   4.791   2.559   6.111
 6418SOL    HW219587   4.680   2.512   6.001
 6419SOL     OW19588   3.800   2.673   6.375
 6419SOL    HW119589   3.899   2.661   6.384
 6419SOL    HW219590   3.776   2.768   6.396
 6420SOL     OW19591   3.854   3.683   7.157
 6420SOL    HW119592   3.844   3.668   7.256
 6420SOL    HW219593   3.768   3.719   7.121
 6421SOL     OW19594   4.589   2.210   5.781
 6421SOL    HW119595   4.648   2.273   5.732
 6421SOL    HW219596   4.608   2.116   5.752
 6422SOL     OW19597   5.086   3.006   6.131
 6422SOL    HW119598   5.169   2.977   6.083
 6422SOL    HW219599   5.037   3.073   6.075
 6423SOL     OW19600   4.274   2.058   6.471
 6423SOL    HW119601   4.269   2.053   6.571
 6423SOL    HW219602   4.276   2.154   6.442
 6424SOL     OW19603   4.732   3.318   6.063
 6424SOL    HW119604   4.686   3.390   6.011
 6424SOL    HW219605   4.728   3.338   6.161
 6425SOL     OW19606   4.075   3.663   6.439
 6425SOL    HW119607   4.125   3.577   6.445
 6425SOL    HW219608   4.140   3.740   6.436
 6426SOL     OW19609   4.951   3.412   7.092
 6426SOL    HW119610   4.957   3.335   7.156
 6426SOL    HW219611   4.899   3.386   7.012
 6427SOL     OW19612   4.045   2.805   5.828
 6427SOL    HW119613   4.127   2.844   5.786
 6427SOL    HW219614   4.018   2.723   5.779
 6428SOL     OW19615   4.185   3.128   7.313
 6428SOL    HW119616   4.135   3.129   7.227
 6428SOL    HW219617   4.122   3.110   7.389
 6429SOL     OW19618   4.835   3.638   5.823
 6429SOL    HW119619   4.775   3.576   5.873
 6429SOL    HW219620   4.866   3.594   5.738
 6430SOL     OW19621   3.926   2.147   7.084
 6430SOL    HW119622   3.846   2.207   7.071
 6430SOL    HW219623   3.916   2.098   7.170
 6431SOL     OW19624   4.188   3.605   5.909
 6431SOL    HW119625   4.221   3.644   5.995
 6431SOL    HW219626   4.264   3.598   5.844
 6432SOL     OW19627   5.124   1.969   6.012
 6432SOL    HW119628   5.100   1.932   5.922
 6432SOL    HW219629   5.223   1.985   6.016
 6433SOL     OW19630   3.973   3.647   6.827
 6433SOL    HW119631   4.030   3.582   6.877
 6433SOL    HW219632   3.957   3.614   6.734
 6434SOL     OW19633   4.664   3.560   6.490
 6434SOL    HW119634   4.744   3.503   6.511
 6434SOL    HW219635   4.615   3.520   6.413
 6435SOL     OW19636   4.106   2.562   6.066
 6435SOL    HW119637   4.151   2.472   6.063
 6435SOL    HW219638   4.012   2.551   6.099
 6436SOL     OW19639   4.338   1.984   5.703
 6436SOL    HW119640   4.436   1.962   5.710
 6436SOL    HW219641   4.307   1.967   5.610
 6437SOL     OW19642   4.505   2.126   7.335
 6437SOL    HW119643   4.572   2.065   7.378
 6437SOL    HW219644   4.432   2.145   7.400
 6438SOL     OW19645   4.612   3.376   6.781
 6438SOL    HW119646   4.589   3.351   6.687
 6438SOL    HW219647   4.673   3.307   6.820
 6439SOL     OW19648   5.075   2.452   7.019
 6439SOL    HW119649   5.103   2.409   7.104
 6439SOL    HW219650   5.100   2.548   7.020
 6440SOL     OW19651   4.527   3.264   6.510
 6440SOL    HW119652   4.617   3.278   6.468
 6440SOL    HW219653   4.456   3.266   6.439
 6441SOL     OW19654   4.646   2.365   6.485
 6441SOL    HW119655   4.621   2.356   6.389
 6441SOL    HW219656   4.694   2.283   6.516
 6442SOL     OW19657   4.263   1.926   6.098
 6442SOL    HW119658   4.182   1.927   6.156
 6442SOL    HW219659   4.266   2.009   6.043
 6443SOL     OW19660   5.158   3.050   5.627
 6443SOL    HW119661   5.190   2.974   5.684
 6443SOL    HW219662   5.066   3.077   5.657
 6444SOL     OW19663   4.021   1.897   5.757
 6444SOL    HW119664   4.070   1.981   5.736
 6444SOL    HW219665   4.083   1.832   5.802
 6445SOL     OW19666   4.659   2.098   6.066
 6445SOL    HW119667   4.611   2.139   5.988
 6445SOL    HW219668   4.758   2.096   6.047
 6446SOL     OW19669   4.800   2.545   7.050
 6446SOL    HW119670   4.720   2.484   7.053
 6446SOL    HW219671   4.881   2.492   7.026
 6447SOL     OW19672   4.951   3.432   6.379
 6447SOL    HW119673   4.972   3.506   6.314
 6447SOL    HW219674   5.019   3.432   6.452
 6448SOL     OW19675   4.183   3.014   6.327
 6448SOL    HW119676   4.112   2.987   6.392
 6448SOL    HW219677   4.157   2.986   6.234
 6449SOL     OW19678   4.995   3.659   6.177
 6449SOL    HW119679   5.039   3.723   6.113
 6449SOL    HW219680   4.945   3.711   6.247
 6450SOL     OW19681   4.756   2.411   5.602
 6450SOL    HW119682   4.715   2.493   5.563
 6450SOL    HW219683   4.820   2.437   5.675
 6451SOL     OW19684   3.802   2.418   6.972
 6451SOL    HW119685   3.894   2.417   6.931
 6451SOL    HW219686   3.796   2.492   7.039
 6452SOL     OW19687   4.285   2.084   6.733
 6452SOL    HW119688   4.323   2.000   6.770
 6452SOL    HW219689   4.197   2.103   6.777
 6453SOL     OW19690   4.590   2.316   6.228
 6453SOL    HW119691   4.558   2.388   6.166
 6453SOL    HW219692   4.614   2.235   6.175
 6454SOL     OW19693   4.741   1.901   6.339
 6454SOL    HW119694   4.669   1.906   6.270
 6454SOL    HW219695   4.717   1.832   6.408
 6455SOL     OW19696   5.153   3.035   6.453
 6455SOL    HW119697   5.098   2.951   6.446
 6455SOL    HW219698   5.179   3.064   6.361
 6456SOL     OW19699   4.212   3.247   5.760
 6456SOL    HW119700   4.125   3.232   5.807
 6456SOL    HW219701   4.195   3.273   5.665
 6457SOL     OW19702   5.114   2.437   5.664
 6457SOL    HW119703   5.060   2.416   5.745
 6457SOL    HW219704   5.205   2.396   5.673
 6458SOL     OW19705   4.251   2.118   5.914
 6458SOL    HW119706   4.278   2.059   5.839
 6458SOL    HW219707   4.251   2.213   5.883
 6459SOL     OW19708   4.788   3.209   6.926
 6459SOL    HW119709   4.708   3.186   6.981
 6459SOL    HW219710   4.871   3.183   6.975
 6460SOL     OW19711   5.316   3.491   7.211
 6460SOL    HW119712   5.343   3.525   7.121
 6460SOL    HW219713   5.395   3.453   7.257
 6461SOL     OW19714   4.835   3.057   6.686
 6461SOL    HW119715   4.795   3.101   6.767
 6461SOL    HW219716   4.794   3.094   6.603
 6462SOL     OW19717   4.639   1.951   6.988
 6462SOL    HW119718   4.664   1.931   6.893
 6462SOL    HW219719   4.711   2.007   7.030
 6463SOL     OW19720   4.704   2.978   7.305
 6463SOL    HW119721   4.605   2.984   7.315
 6463SOL    HW219722   4.727   2.898   7.249
 6464SOL     OW19723   4.429   2.912   5.954
 6464SOL    HW119724   4.415   2.919   6.053
 6464SOL    HW219725   4.513   2.861   5.936
 6465SOL     OW19726   4.134   2.675   6.837
 6465SOL    HW119727   4.220   2.687   6.887
 6465SOL    HW219728   4.092   2.588   6.864
 6466SOL     OW19729   4.998   2.248   6.848
 6466SOL    HW119730   5.019   2.322   6.912
 6466SOL    HW219731   4.909   2.265   6.805
 6467SOL     OW19732   3.788   3.426   6.917
 6467SOL    HW119733   3.742   3.508   6.883
 6467SOL    HW219734   3.886   3.445   6.926
 6468SOL     OW19735   4.091   2.962   6.087
 6468SOL    HW119736   4.084   3.045   6.031
 6468SOL    HW219737   4.095   2.882   6.027
 6469SOL     OW19738   4.290   2.399   6.451
 6469SOL    HW119739   4.302   2.465   6.377
 6469SOL    HW219740   4.336   2.433   6.534
 6470SOL     OW19741   4.976   3.210   5.974
 6470SOL    HW119742   5.026   3.287   6.014
 6470SOL    HW219743   4.881   3.212   6.006
 6471SOL     OW19744   4.996   3.307   6.728
 6471SOL    HW119745   5.043   3.320   6.815
 6471SOL    HW219746   4.930   3.233   6.737
 6472SOL     OW19747   4.078   3.372   6.915
 6472SOL    HW119748   4.057   3.328   6.828
 6472SOL    HW219749   4.175   3.398   6.918
 6473SOL     OW19750   4.126   2.613   7.184
 6473SOL    HW119751   4.194   2.668   7.137
 6473SOL    HW219752   4.166   2.525   7.211
 6474SOL     OW19753   4.737   1.967   7.356
 6474SOL    HW119754   4.743   2.052   7.304
 6474SOL    HW219755   4.769   1.891   7.299
 6475SOL     OW19756   4.228   1.912   7.326
 6475SOL    HW119757   4.186   1.855   7.256
 6475SOL    HW219758   4.162   1.981   7.358
 6476SOL     OW19759   4.297   2.732   6.615
 6476SOL    HW119760   4.341   2.821   6.606
 6476SOL    HW219761   4.234   2.732   6.692
 6477SOL     OW19762   5.084   2.724   6.631
 6477SOL    HW119763   5.009   2.724   6.565
 6477SOL    HW219764   5.121   2.632   6.640
 6478SOL     OW19765   4.933   2.387   5.861
 6478SOL    HW119766   4.946   2.303   5.915
 6478SOL    HW219767   4.904   2.461   5.921
 6479SOL     OW19768   4.031   2.075   6.817
 6479SOL    HW119769   4.008   2.112   6.907
 6479SOL    HW219770   4.001   1.980   6.811
 6480SOL     OW19771   3.761   3.172   6.868
 6480SOL    HW119772   3.814   3.123   6.936
 6480SOL    HW219773   3.783   3.270   6.873
 6481SOL     OW19774   4.456   2.496   6.650
 6481SOL    HW119775   4.515   2.470   6.574
 6481SOL    HW219776   4.428   2.592   6.639
 6482SOL     OW19777   4.031   1.925   6.204
 6482SOL    HW119778   4.020   2.019   6.237
 6482SOL    HW219779   4.026   1.862   6.281
 6483SOL     OW19780   5.346   2.229   5.960
 6483SOL    HW119781   5.348   2.153   6.024
 6483SOL    HW219782   5.298   2.306   6.000
 6484SOL     OW19783   4.747   2.628   6.552
 6484SOL    HW119784   4.762   2.649   6.648
 6484SOL    HW219785   4.717   2.533   6.543
 6485SOL     OW19786   4.704   3.435   7.286
 6485SOL    HW119787   4.684   3.479   7.198
 6485SOL    HW219788   4.743   3.344   7.270
 6486SOL     OW19789   4.074   2.760   7.390
 6486SOL    HW119790   4.150   2.804   7.438
 6486SOL    HW219791   4.109   2.713   7.308
 6487SOL     OW19792   5.027   2.700   5.628
 6487SOL    HW119793   5.061   2.607   5.643
 6487SOL    HW219794   5.045   2.727   5.533
 6488SOL     OW19795   4.792   3.195   6.435
 6488SOL    HW119796   4.799   3.111   6.380
 6488SOL    HW219797   4.854   3.264   6.399
 6489SOL     OW19798   4.043   2.672   6.535
 6489SOL    HW119799   4.136   2.708   6.540
 6489SOL    HW219800   4.037   2.587   6.587
 6490SOL     OW19801   4.063   2.371   6.592
 6490SOL    HW119802   4.011   2.288   6.575
 6490SOL    HW219803   4.140   2.376   6.528
 6491SOL     OW19804   4.862   2.242   7.264
 6491SOL    HW119805   4.817   2.305   7.328
 6491SOL    HW219806   4.955   2.273   7.247
 6492SOL     OW19807   4.884   2.069   7.063
 6492SOL    HW119808   4.884   2.133   7.140
 6492SOL    HW219809   4.912   2.117   6.980
 6493SOL     OW19810   3.732   3.188   5.786
 6493SOL    HW119811   3.639   3.209   5.755
 6493SOL    HW219812   3.742   3.089   5.799
 6494SOL     OW19813   3.812   3.663   6.513
 6494SOL    HW119814   3.770   3.577   6.486
 6494SOL    HW219815   3.906   3.666   6.479
 6495SOL     OW19816   4.228   3.430   6.496
 6495SOL    HW119817   4.294   3.504   6.505
 6495SOL    HW219818   4.272   3.351   6.454
 6496SOL     OW19819   4.726   2.658   6.824
 6496SOL    HW119820   4.767   2.626   6.910
 6496SOL    HW219821   4.630   2.631   6.821
 6497SOL     OW19822   3.764   2.406   6.700
 6497SOL    HW119823   3.849   2.373   6.659
 6497SOL    HW219824   3.777   2.421   6.798
 6498SOL     OW19825   3.913   2.382   7.308
 6498SOL    HW119826   3.972   2.342   7.238
 6498SOL    HW219827   3.855   2.453   7.267
 6499SOL     OW19828   5.093   2.812   7.246
 6499SOL    HW119829   5.132   2.901   7.266
 6499SOL    HW219830   5.103   2.792   7.149
 6500SOL     OW19831   4.539   2.434   5.911
 6500SOL    HW119832   4.546   2.345   5.865
 6500SOL    HW219833   4.445   2.468   5.903
 6501SOL     OW19834   3.976   3.426   7.330
 6501SOL    HW119835   3.946   3.483   7.406
 6501SOL    HW219836   3.969   3.329   7.356
 6502SOL     OW19837   4.395   2.326   6.855
 6502SOL    HW119838   4.361   2.237   6.825
 6502SOL    HW219839   4.421   2.380   6.775
 6503SOL     OW19840   4.654   3.540   7.051
 6503SOL    HW119841   4.630   3.522   6.956
 6503SOL    HW219842   4.684   3.634   7.061
 6504SOL     OW19843   4.197   2.362   5.777
 6504SOL    HW119844   4.258   2.442   5.781
 6504SOL    HW219845   4.102   2.393   5.784
 6505SOL     OW19846   3.883   2.999   7.052
 6505SOL    HW119847   3.905   2.938   7.128
 6505SOL    HW219848   3.893   2.950   6.966
 6506SOL     OW19849   5.071   2.921   6.820
 6506SOL    HW119850   5.095   2.858   6.746
 6506SOL    HW219851   4.981   2.961   6.802
 6507SOL     OW19852   5.026   2.717   5.895
 6507SOL    HW119853   4.940   2.686   5.937
 6507SOL    HW219854   5.022   2.703   5.796
 6508SOL     OW19855   4.976   3.593   6.714
 6508SOL    HW119856   5.060   3.598   6.660
 6508SOL    HW219857   4.953   3.497   6.732
 6509SOL     OW19858   3.807   3.120   6.608
 6509SOL    HW119859   3.802   3.119   6.708
 6509SOL    HW219860   3.724   3.079   6.570
 6510SOL     OW19861   4.412   3.524   7.302
 6510SOL    HW119862   4.356   3.605   7.311
 6510SOL    HW219863   4.464   3.528   7.216
 6511SOL     OW19864   5.450   1.997   6.109
 6511SOL    HW119865   5.523   1.980   6.042
 6511SOL    HW219866   5.419   1.910   6.147
 6512SOL     OW19867   5.112   3.435   6.063
 6512SOL    HW119868   5.179   3.447   5.989
 6512SOL    HW219869   5.072   3.524   6.086
 6513SOL     OW19870   3.854   3.656   7.437
 6513SOL    HW119871   3.813   3.582   7.490
 6513SOL    HW219872   3.918   3.707   7.495
 6514SOL     OW19873   5.004   2.789   6.258
 6514SOL    HW119874   5.064   2.708   6.260
 6514SOL    HW219875   5.044   2.858   6.198
 6515SOL     OW19876   4.554   3.135   7.008
 6515SOL    HW119877   4.549   3.168   7.103
 6515SOL    HW219878   4.468   3.154   6.962
 6516SOL     OW19879   4.396   3.478   5.740
 6516SOL    HW119880   4.405   3.488   5.641
 6516SOL    HW219881   4.356   3.389   5.761
 6517SOL     OW19882   3.987   2.188   6.306
 6517SOL    HW119883   3.908   2.239   6.272
 6517SOL    HW219884   3.978   2.173   6.404
 6518SOL     OW19885   4.918   3.474   5.617
 6518SOL    HW119886   4.924   3.381   5.654
 6518SOL    HW219887   4.859   3.474   5.537
 6519SOL     OW19888   4.546   2.864   6.958
 6519SOL    HW119889   4.586   2.863   6.866
 6519SOL    HW219890   4.556   2.956   6.998
 6520SOL     OW19891   4.640   2.772   5.877
 6520SOL    HW119892   4.703   2.810   5.809
 6520SOL    HW219893   4.680   2.689   5.916
 6521SOL     OW19894   4.096   3.150   7.076
 6521SOL    HW119895   4.083   3.243   7.042
 6521SOL    HW219896   4.012   3.098   7.063
 6522SOL     OW19897   4.763   2.960   6.282
 6522SOL    HW119898   4.693   2.913   6.336
 6522SOL    HW219899   4.822   2.892   6.239
 6523SOL     OW19900   4.738   2.098   6.557
 6523SOL    HW119901   4.730   2.062   6.464
 6523SOL    HW219902   4.736   2.022   6.622
 6524SOL     OW19903   4.314   3.349   6.077
 6524SOL    HW119904   4.356   3.291   6.007
 6524SOL    HW219905   4.270   3.428   6.033
 6525SOL     OW19906   3.979   3.210   5.876
 6525SOL    HW119907   3.883   3.211   5.849
 6525SOL    HW219908   3.991   3.263   5.960
 6526SOL     OW19909   3.829   2.875   7.312
 6526SOL    HW119910   3.752   2.842   7.366
 6526SOL    HW219911   3.914   2.845   7.354
 6527SOL     OW19912   4.396   2.065   7.075
 6527SOL    HW119913   4.486   2.049   7.035
 6527SOL    HW219914   4.404   2.070   7.174
 6528SOL     OW19915   3.799   2.207   5.619
 6528SOL    HW119916   3.707   2.179   5.590
 6528SOL    HW219917   3.830   2.284   5.563
 6529SOL     OW19918   5.164   2.718   6.984
 6529SOL    HW119919   5.107   2.770   6.921
 6529SOL    HW219920   5.260   2.730   6.960
 6530SOL     OW19921   3.796   2.028   5.904
 6530SOL    HW119922   3.779   2.111   5.850
 6530SOL    HW219923   3.886   1.991   5.882
 6531SOL     OW19924   4.907   3.197   5.705
 6531SOL    HW119925   4.808   3.186   5.707
 6531SOL    HW219926   4.941   3.212   5.798
 6532SOL     OW19927   4.337   2.704   7.017
 6532SOL    HW119928   4.393   2.785   7.000
 6532SOL    HW219929   4.396   2.624   7.020
 6533SOL     OW19930   4.440   2.427   7.294
 6533SOL    HW119931   4.459   2.492   7.368
 6533SOL    HW219932   4.500   2.347   7.303
 6534SOL     OW19933   5.174   3.082   7.219
 6534SOL    HW119934   5.165   3.072   7.318
 6534SOL    HW219935   5.270   3.075   7.193
 6535SOL     OW19936   4.114   3.603   7.146
 6535SOL    HW119937   4.023   3.644   7.144
 6535SOL    HW219938   4.107   3.509   7.178
 6536SOL     OW19939   4.949   2.187   6.035
 6536SOL    HW119940   5.014   2.113   6.024
 6536SOL    HW219941   4.969   2.237   6.119
 6537SOL     OW19942   4.318   2.607   6.238
 6537SOL    HW119943   4.368   2.692   6.219
 6537SOL    HW219944   4.230   2.609   6.190
 6538SOL     OW19945   4.583   3.236   5.602
 6538SOL    HW119946   4.537   3.251   5.690
 6538SOL    HW219947   4.627   3.321   5.572
 6539SOL     OW19948   4.385   3.652   6.539
 6539SOL    HW119949   4.339   3.740   6.526
 6539SOL    HW219950   4.484   3.664   6.532
 6540SOL     OW19951   4.583   2.818   6.447
 6540SOL    HW119952   4.637   2.749   6.495
 6540SOL    HW219953   4.551   2.887   6.513
 6541SOL     OW19954   4.807   2.846   5.673
 6541SOL    HW119955   4.784   2.899   5.591
 6541SOL    HW219956   4.888   2.790   5.654
 6542SOL     OW19957   3.945   3.176   7.430
 6542SOL    HW119958   3.880   3.103   7.409
 6542SOL    HW219959   3.949   3.190   7.528
 6543SOL     OW19960   3.803   3.102   6.239
 6543SOL    HW119961   3.802   3.055   6.327
 6543SOL    HW219962   3.885   3.074   6.188
 6544SOL     OW19963   4.396   3.253   7.210
 6544SOL    HW119964   4.318   3.203   7.248
 6544SOL    HW219965   4.393   3.348   7.241
 6545SOL     OW19966   4.152   2.286   6.106
 6545SOL    HW119967   4.182   2.214   6.044
 6545SOL    HW219968   4.113   2.246   6.189
 6546SOL     OW19969   5.429   3.349   6.690
 6546SOL    HW119970   5.336   3.324   6.663
 6546SOL    HW219971   5.455   3.299   6.772
 6547SOL     OW19972   4.041   2.409   6.866
 6547SOL    HW119973   4.079   2.350   6.938
 6547SOL    HW219974   4.081   2.383   6.778
 6548SOL     OW19975   4.536   3.448   6.273
 6548SOL    HW119976   4.568   3.458   6.179
 6548SOL    HW219977   4.457   3.386   6.275
 6549SOL     OW19978   5.148   2.076   6.698
 6549SOL    HW119979   5.200   2.011   6.753
 6549SOL    HW219980   5.099   2.139   6.759
 6550SOL     OW19981   4.725   1.896   6.740
 6550SOL    HW119982   4.662   1.824   6.709
 6550SOL    HW219983   4.818   1.860   6.740
 6551SOL     OW19984   4.494   3.192   5.887
 6551SOL    HW119985   4.448   3.105   5.904
 6551SOL    HW219986   4.585   3.189   5.928
 6552SOL     OW19987   4.342   3.429   6.870
 6552SOL    HW119988   4.337   3.511   6.927
 6552SOL    HW219989   4.431   3.426   6.825
 6553SOL     OW19990   5.076   1.914   5.754
 6553SOL    HW119991   5.111   1.873   5.670
 6553SOL    HW219992   4.986   1.876   5.774
 6554SOL     OW19993   5.024   2.315   6.277
 6554SOL    HW119994   4.965   2.395   6.281
 6554SOL    HW219995   5.039   2.280   6.370
 6555SOL     OW19996   5.317   2.083   6.468
 6555SOL    HW119997   5.233   2.082   6.522
 6555SOL    HW219998   5.319   2.166   6.412
 6556SOL     OW19999   3.763   2.939   5.886
 6556SOL    HW120000   3.862   2.928   5.877
 6556SOL    HW220001   3.723   2.853   5.918
 6557SOL     OW20002   4.599   3.508   5.923
 6557SOL    HW120003   4.522   3.473   5.869
 6557SOL    HW220004   4.567   3.579   5.985
 6558SOL     OW20005   3.954   2.490   7.561
 6558SOL    HW120006   3.861   2.488   7.598
 6558SOL    HW220007   3.955   2.451   7.469
 6559SOL     OW20008   3.955   3.575   7.931
 6559SOL    HW120009   3.989   3.652   7.985
 6559SOL    HW220010   3.999   3.575   7.841
 6560SOL     OW20011   3.954   3.296   7.986
 6560SOL    HW120012   3.928   3.392   7.986
 6560SOL    HW220013   3.883   3.242   8.031
 6561SOL     OW20014   4.330   2.826   7.571
 6561SOL    HW120015   4.337   2.910   7.517
 6561SOL    HW220016   4.376   2.839   7.659
 6562SOL     OW20017   3.751   3.458   7.565
 6562SOL    HW120018   3.732   3.362   7.586
 6562SOL    HW220019   3.718   3.516   7.640
 6563SOL     OW20020   5.413   2.784   8.060
 6563SOL    HW120021   5.508   2.755   8.068
 6563SOL    HW220022   5.405   2.849   7.985
 6564SOL     OW20023   4.533   1.866   7.950
 6564SOL    HW120024   4.573   1.957   7.941
 6564SOL    HW220025   4.433   1.874   7.956
 6565SOL     OW20026   4.322   2.591   7.718
 6565SOL    HW120027   4.346   2.660   7.650
 6565SOL    HW220028   4.244   2.624   7.772
 6566SOL     OW20029   3.800   2.673   8.237
 6566SOL    HW120030   3.899   2.661   8.246
 6566SOL    HW220031   3.776   2.768   8.258
 6567SOL     OW20032   4.589   2.210   7.643
 6567SOL    HW120033   4.648   2.273   7.594
 6567SOL    HW220034   4.608   2.116   7.614
 6568SOL     OW20035   4.045   2.805   7.690
 6568SOL    HW120036   4.127   2.844   7.648
 6568SOL    HW220037   4.018   2.723   7.641
 6569SOL     OW20038   4.835   3.638   7.685
 6569SOL    HW120039   4.775   3.576   7.735
 6569SOL    HW220040   4.866   3.594   7.600
 6570SOL     OW20041   4.188   3.605   7.771
 6570SOL    HW120042   4.221   3.644   7.857
 6570SOL    HW220043   4.264   3.598   7.706
 6571SOL     OW20044   5.124   1.969   7.874
 6571SOL    HW120045   5.100   1.932   7.784
 6571SOL    HW220046   5.223   1.985   7.878
 6572SOL     OW20047   4.106   2.562   7.928
 6572SOL    HW120048   4.151   2.472   7.925
 6572SOL    HW220049   4.012   2.551   7.961
 6573SOL     OW20050   4.338   1.984   7.565
 6573SOL    HW120051   4.436   1.962   7.572
 6573SOL    HW220052   4.307   1.967   7.472
 6574SOL     OW20053   4.263   1.926   7.960
 6574SOL    HW120054   4.182   1.927   8.018
 6574SOL    HW220055   4.266   2.009   7.905
 6575SOL     OW20056   5.158   3.050   7.489
 6575SOL    HW120057   5.190   2.974   7.546
 6575SOL    HW220058   5.066   3.077   7.519
 6576SOL     OW20059   4.021   1.897   7.619
 6576SOL    HW120060   4.070   1.981   7.598
 6576SOL    HW220061   4.083   1.832   7.664
 6577SOL     OW20062   4.659   2.098   7.928
 6577SOL    HW120063   4.611   2.139   7.850
 6577SOL    HW220064   4.758   2.096   7.909
 6578SOL     OW20065   4.183   3.014   8.189
 6578SOL    HW120066   4.112   2.987   8.254
 6578SOL    HW220067   4.157   2.986   8.096
 6579SOL     OW20068   4.995   3.659   8.039
 6579SOL    HW120069   5.039   3.723   7.975
 6579SOL    HW220070   4.945   3.711   8.109
 6580SOL     OW20071   4.756   2.411   7.464
 6580SOL    HW120072   4.715   2.493   7.425
 6580SOL    HW220073   4.820   2.437   7.537
 6581SOL     OW20074   4.212   3.247   7.622
 6581SOL    HW120075   4.125   3.232   7.669
 6581SOL    HW220076   4.195   3.273   7.527
 6582SOL     OW20077   5.114   2.437   7.526
 6582SOL    HW120078   5.060   2.416   7.607
 6582SOL    HW220079   5.205   2.396   7.535
 6583SOL     OW20080   4.251   2.118   7.776
 6583SOL    HW120081   4.278   2.059   7.701
 6583SOL    HW220082   4.251   2.213   7.745
 6584SOL     OW20083   4.429   2.912   7.816
 6584SOL    HW120084   4.415   2.919   7.915
 6584SOL    HW220085   4.513   2.861   7.798
 6585SOL     OW20086   4.091   2.962   7.949
 6585SOL    HW120087   4.084   3.045   7.893
 6585SOL    HW220088   4.095   2.882   7.889
 6586SOL     OW20089   4.976   3.210   7.836
 6586SOL    HW120090   5.026   3.287   7.876
 6586SOL    HW220091   4.881   3.212   7.868
 6587SOL     OW20092   5.306   2.501   7.920
 6587SOL    HW120093   5.275   2.562   7.993
 6587SOL    HW220094   5.356   2.553   7.851
 6588SOL     OW20095   4.933   2.387   7.723
 6588SOL    HW120096   4.946   2.303   7.777
 6588SOL    HW220097   4.904   2.461   7.783
 6589SOL     OW20098   5.346   2.229   7.822
 6589SOL    HW120099   5.348   2.153   7.886
 6589SOL    HW220100   5.298   2.306   7.862
 6590SOL     OW20101   5.027   2.700   7.490
 6590SOL    HW120102   5.061   2.607   7.505
 6590SOL    HW220103   5.045   2.727   7.395
 6591SOL     OW20104   3.732   3.188   7.648
 6591SOL    HW120105   3.639   3.209   7.617
 6591SOL    HW220106   3.742   3.089   7.661
 6592SOL     OW20107   4.539   2.434   7.773
 6592SOL    HW120108   4.546   2.345   7.727
 6592SOL    HW220109   4.445   2.468   7.765
 6593SOL     OW20110   4.197   2.362   7.639
 6593SOL    HW120111   4.258   2.442   7.643
 6593SOL    HW220112   4.102   2.393   7.646
 6594SOL     OW20113   5.026   2.717   7.757
 6594SOL    HW120114   4.940   2.686   7.799
 6594SOL    HW220115   5.022   2.703   7.658
 6595SOL     OW20116   5.450   1.997   7.971
 6595SOL    HW120117   5.523   1.980   7.904
 6595SOL    HW220118   5.419   1.910   8.009
 6596SOL     OW20119   5.112   3.435   7.925
 6596SOL    HW120120   5.179   3.447   7.851
 6596SOL    HW220121   5.072   3.524   7.948
 6597SOL     OW20122   4.396   3.478   7.602
 6597SOL    HW120123   4.405   3.488   7.503
 6597SOL    HW220124   4.356   3.389   7.623
 6598SOL     OW20125   4.918   3.474   7.479
 6598SOL    HW120126   4.924   3.381   7.516
 6598SOL    HW220127   4.859   3.474   7.399
 6599SOL     OW20128   4.640   2.772   7.739
 6599SOL    HW120129   4.703   2.810   7.671
 6599SOL    HW220130   4.680   2.689   7.778
 6600SOL     OW20131   4.314   3.349   7.939
 6600SOL    HW120132   4.356   3.291   7.869
 6600SOL    HW220133   4.270   3.428   7.895
 6601SOL     OW20134   3.979   3.210   7.738
 6601SOL    HW120135   3.883   3.211   7.711
 6601SOL    HW220136   3.991   3.263   7.822
 6602SOL     OW20137   3.799   2.207   7.481
 6602SOL    HW120138   3.707   2.179   7.452
 6602SOL    HW220139   3.830   2.284   7.425
 6603SOL     OW20140   3.796   2.028   7.766
 6603SOL    HW120141   3.779   2.111   7.712
 6603SOL    HW220142   3.886   1.991   7.744
 6604SOL     OW20143   4.907   3.197   7.567
 6604SOL    HW120144   4.808   3.186   7.569
 6604SOL    HW220145   4.941   3.212   7.660
 6605SOL     OW20146   5.217   3.629   8.407
 6605SOL    HW120147   5.250   3.693   8.338
 6605SOL    HW220148   5.283   3.623   8.482
 6606SOL     OW20149   4.949   2.187   7.897
 6606SOL    HW120150   5.014   2.113   7.886
 6606SOL    HW220151   4.969   2.237   7.981
 6607SOL     OW20152   4.318   2.607   8.100
 6607SOL    HW120153   4.368   2.692   8.081
 6607SOL    HW220154   4.230   2.609   8.052
 6608SOL     OW20155   4.583   3.236   7.464
 6608SOL    HW120156   4.537   3.251   7.552
 6608SOL    HW220157   4.627   3.321   7.434
 6609SOL     OW20158   4.807   2.846   7.535
 6609SOL    HW120159   4.784   2.899   7.453
 6609SOL    HW220160   4.888   2.790   7.516
 6610SOL     OW20161   4.152   2.286   7.968
 6610SOL    HW120162   4.182   2.214   7.906
 6610SOL    HW220163   4.113   2.246   8.051
 6611SOL     OW20164   4.494   3.192   7.749
 6611SOL    HW120165   4.448   3.105   7.766
 6611SOL    HW220166   4.585   3.189   7.790
 6612SOL     OW20167   5.076   1.914   7.616
 6612SOL    HW120168   5.111   1.873   7.532
 6612SOL    HW220169   4.986   1.876   7.636
 6613SOL     OW20170   3.763   2.939   7.748
 6613SOL    HW120171   3.862   2.928   7.739
 6613SOL    HW220172   3.723   2.853   7.780
 6614SOL     OW20173   4.599   3.508   7.785
 6614SOL    HW120174   4.522   3.473   7.731
 6614SOL    HW220175   4.567   3.579   7.847
 6615SOL     OW20176   3.954   4.352   0.113
 6615SOL    HW120177   3.861   4.350   0.150
 6615SOL    HW220178   3.955   4.313   0.021
 6616SOL     OW20179   3.949   3.999   0.996
 6616SOL    HW120180   3.984   3.982   1.088
 6616SOL    HW220181   3.861   3.954   0.984
 6617SOL     OW20182   3.743   4.092   0.647
 6617SOL    HW120183   3.661   4.135   0.686
 6617SOL    HW220184   3.715   4.019   0.584
 6618SOL     OW20185   4.293   4.999   1.165
 6618SOL    HW120186   4.200   4.992   1.128
 6618SOL    HW220187   4.304   5.088   1.209
 6619SOL     OW20188   5.279   5.235   0.703
 6619SOL    HW120189   5.222   5.219   0.784
 6619SOL    HW220190   5.220   5.245   0.623
 6620SOL     OW20191   4.859   4.427   0.717
 6620SOL    HW120192   4.916   4.505   0.692
 6620SOL    HW220193   4.799   4.453   0.793
 6621SOL     OW20194   4.492   4.868   1.023
 6621SOL    HW120195   4.414   4.885   1.083
 6621SOL    HW220196   4.526   4.955   0.987
 6622SOL     OW20197   4.574   4.522   1.823
 6622SOL    HW120198   4.570   4.598   1.888
 6622SOL    HW220199   4.596   4.558   1.732
 6623SOL     OW20200   4.409   4.736   0.665
 6623SOL    HW120201   4.478   4.720   0.735
 6623SOL    HW220202   4.336   4.793   0.703
 6624SOL     OW20203   4.410   4.885   1.803
 6624SOL    HW120204   4.470   4.964   1.817
 6624SOL    HW220205   4.324   4.916   1.762
 6625SOL     OW20206   4.059   5.159   1.061
 6625SOL    HW120207   3.981   5.128   1.008
 6625SOL    HW220208   4.117   5.217   1.004
 6626SOL     OW20209   5.184   5.229   1.339
 6626SOL    HW120210   5.208   5.323   1.365
 6626SOL    HW220211   5.168   5.175   1.421
 6627SOL     OW20212   4.162   4.116   1.499
 6627SOL    HW120213   4.244   4.060   1.508
 6627SOL    HW220214   4.081   4.058   1.503
 6628SOL     OW20215   4.851   5.065   1.690
 6628SOL    HW120216   4.898   5.065   1.778
 6628SOL    HW220217   4.803   4.978   1.679
 6629SOL     OW20218   3.954   5.158   0.538
 6629SOL    HW120219   3.928   5.254   0.538
 6629SOL    HW220220   3.883   5.104   0.583
 6630SOL     OW20221   3.964   4.815   0.886
 6630SOL    HW120222   3.978   4.731   0.938
 6630SOL    HW220223   3.909   4.879   0.941
 6631SOL     OW20224   4.330   4.688   0.123
 6631SOL    HW120225   4.337   4.772   0.069
 6631SOL    HW220226   4.376   4.701   0.211
 6632SOL     OW20227   3.846   4.367   0.563
 6632SOL    HW120228   3.801   4.279   0.580
 6632SOL    HW220229   3.845   4.421   0.647
 6633SOL     OW20230   3.751   5.320   0.117
 6633SOL    HW120231   3.732   5.224   0.138
 6633SOL    HW220232   3.718   5.378   0.192
 6634SOL     OW20233   5.413   4.646   0.612
 6634SOL    HW120234   5.508   4.617   0.620
 6634SOL    HW220235   5.405   4.711   0.537
 6635SOL     OW20236   3.837   4.461   1.597
 6635SOL    HW120237   3.925   4.448   1.642
 6635SOL    HW220238   3.824   4.558   1.575
 6636SOL     OW20239   4.337   5.089   0.726
 6636SOL    HW120240   4.288   5.002   0.735
 6636SOL    HW220241   4.314   5.132   0.639
 6637SOL     OW20242   5.017   4.952   1.423
 6637SOL    HW120243   5.054   4.879   1.365
 6637SOL    HW220244   5.069   4.957   1.508
 6638SOL     OW20245   4.533   3.728   0.502
 6638SOL    HW120246   4.573   3.819   0.493
 6638SOL    HW220247   4.433   3.736   0.508
 6639SOL     OW20248   3.921   4.700   1.264
 6639SOL    HW120249   4.010   4.655   1.250
 6639SOL    HW220250   3.848   4.635   1.245
 6640SOL     OW20251   4.041   3.975   1.801
 6640SOL    HW120252   4.112   4.046   1.807
 6640SOL    HW220253   3.953   4.014   1.829
 6641SOL     OW20254   5.190   5.141   0.953
 6641SOL    HW120255   5.131   5.147   1.033
 6641SOL    HW220256   5.175   5.053   0.907
 6642SOL     OW20257   5.391   5.438   0.572
 6642SOL    HW120258   5.350   5.415   0.484
 6642SOL    HW220259   5.373   5.364   0.637
 6643SOL     OW20260   4.322   4.453   0.270
 6643SOL    HW120261   4.346   4.522   0.202
 6643SOL    HW220262   4.244   4.486   0.324
 6644SOL     OW20263   5.005   4.069   0.944
 6644SOL    HW120264   4.919   4.019   0.931
 6644SOL    HW220265   5.067   4.015   1.000
 6645SOL     OW20266   4.531   4.329   1.465
 6645SOL    HW120267   4.484   4.326   1.554
 6645SOL    HW220268   4.480   4.274   1.399
 6646SOL     OW20269   5.118   4.193   1.674
 6646SOL    HW120270   5.098   4.236   1.762
 6646SOL    HW220271   5.196   4.131   1.683
 6647SOL     OW20272   4.697   4.614   1.572
 6647SOL    HW120273   4.743   4.530   1.543
 6647SOL    HW220274   4.641   4.648   1.497
 6648SOL     OW20275   4.715   4.134   1.242
 6648SOL    HW120276   4.638   4.168   1.296
 6648SOL    HW220277   4.681   4.083   1.163
 6649SOL     OW20278   4.765   4.425   0.429
 6649SOL    HW120279   4.791   4.421   0.525
 6649SOL    HW220280   4.680   4.374   0.415
 6650SOL     OW20281   3.800   4.535   0.789
 6650SOL    HW120282   3.899   4.523   0.798
 6650SOL    HW220283   3.776   4.630   0.810
 6651SOL     OW20284   4.589   4.072   0.195
 6651SOL    HW120285   4.648   4.135   0.146
 6651SOL    HW220286   4.608   3.978   0.166
 6652SOL     OW20287   5.086   4.868   0.545
 6652SOL    HW120288   5.169   4.839   0.497
 6652SOL    HW220289   5.037   4.935   0.489
 6653SOL     OW20290   4.274   3.920   0.885
 6653SOL    HW120291   4.269   3.915   0.985
 6653SOL    HW220292   4.276   4.016   0.856
 6654SOL     OW20293   4.732   5.180   0.477
 6654SOL    HW120294   4.686   5.252   0.425
 6654SOL    HW220295   4.728   5.200   0.575
 6655SOL     OW20296   4.951   5.274   1.506
 6655SOL    HW120297   4.957   5.197   1.570
 6655SOL    HW220298   4.899   5.248   1.426
 6656SOL     OW20299   4.045   4.667   0.242
 6656SOL    HW120300   4.127   4.706   0.200
 6656SOL    HW220301   4.018   4.585   0.193
 6657SOL     OW20302   4.185   4.990   1.727
 6657SOL    HW120303   4.135   4.991   1.641
 6657SOL    HW220304   4.122   4.972   1.803
 6658SOL     OW20305   4.835   5.500   0.237
 6658SOL    HW120306   4.775   5.438   0.287
 6658SOL    HW220307   4.866   5.456   0.152
 6659SOL     OW20308   3.926   4.009   1.498
 6659SOL    HW120309   3.846   4.069   1.485
 6659SOL    HW220310   3.916   3.960   1.584
 6660SOL     OW20311   5.124   3.831   0.426
 6660SOL    HW120312   5.100   3.794   0.336
 6660SOL    HW220313   5.223   3.847   0.430
 6661SOL     OW20314   4.106   4.424   0.480
 6661SOL    HW120315   4.151   4.334   0.477
 6661SOL    HW220316   4.012   4.413   0.513
 6662SOL     OW20317   4.338   3.846   0.117
 6662SOL    HW120318   4.436   3.824   0.124
 6662SOL    HW220319   4.307   3.829   0.024
 6663SOL     OW20320   4.505   3.988   1.749
 6663SOL    HW120321   4.572   3.927   1.792
 6663SOL    HW220322   4.432   4.007   1.814
 6664SOL     OW20323   5.075   4.314   1.433
 6664SOL    HW120324   5.103   4.271   1.518
 6664SOL    HW220325   5.100   4.410   1.434
 6665SOL     OW20326   4.527   5.126   0.924
 6665SOL    HW120327   4.617   5.140   0.882
 6665SOL    HW220328   4.456   5.128   0.853
 6666SOL     OW20329   4.646   4.227   0.899
 6666SOL    HW120330   4.621   4.218   0.803
 6666SOL    HW220331   4.694   4.145   0.930
 6667SOL     OW20332   4.263   3.788   0.512
 6667SOL    HW120333   4.182   3.789   0.570
 6667SOL    HW220334   4.266   3.871   0.457
 6668SOL     OW20335   5.158   4.912   0.041
 6668SOL    HW120336   5.190   4.836   0.098
 6668SOL    HW220337   5.066   4.939   0.071
 6669SOL     OW20338   4.021   3.759   0.171
 6669SOL    HW120339   4.070   3.843   0.150
 6669SOL    HW220340   4.083   3.694   0.216
 6670SOL     OW20341   4.659   3.960   0.480
 6670SOL    HW120342   4.611   4.001   0.402
 6670SOL    HW220343   4.758   3.958   0.461
 6671SOL     OW20344   4.800   4.407   1.464
 6671SOL    HW120345   4.720   4.346   1.467
 6671SOL    HW220346   4.881   4.354   1.440
 6672SOL     OW20347   4.951   5.294   0.793
 6672SOL    HW120348   4.972   5.368   0.728
 6672SOL    HW220349   5.019   5.294   0.866
 6673SOL     OW20350   4.183   4.876   0.741
 6673SOL    HW120351   4.112   4.849   0.806
 6673SOL    HW220352   4.157   4.848   0.648
 6674SOL     OW20353   4.756   4.273   0.016
 6674SOL    HW120354   4.715   4.355  -0.023
 6674SOL    HW220355   4.820   4.299   0.089
 6675SOL     OW20356   3.802   4.280   1.386
 6675SOL    HW120357   3.894   4.279   1.345
 6675SOL    HW220358   3.796   4.354   1.453
 6676SOL     OW20359   4.285   3.946   1.147
 6676SOL    HW120360   4.323   3.862   1.184
 6676SOL    HW220361   4.197   3.965   1.191
 6677SOL     OW20362   4.590   4.178   0.642
 6677SOL    HW120363   4.558   4.250   0.580
 6677SOL    HW220364   4.614   4.097   0.589
 6678SOL     OW20365   4.741   3.763   0.753
 6678SOL    HW120366   4.669   3.768   0.684
 6678SOL    HW220367   4.717   3.694   0.822
 6679SOL     OW20368   5.153   4.897   0.867
 6679SOL    HW120369   5.098   4.813   0.860
 6679SOL    HW220370   5.179   4.926   0.775
 6680SOL     OW20371   4.212   5.109   0.174
 6680SOL    HW120372   4.125   5.094   0.221
 6680SOL    HW220373   4.195   5.135   0.079
 6681SOL     OW20374   5.114   4.299   0.078
 6681SOL    HW120375   5.060   4.278   0.159
 6681SOL    HW220376   5.205   4.258   0.087
 6682SOL     OW20377   4.251   3.980   0.328
 6682SOL    HW120378   4.278   3.921   0.253
 6682SOL    HW220379   4.251   4.075   0.297
 6683SOL     OW20380   4.788   5.071   1.340
 6683SOL    HW120381   4.708   5.048   1.395
 6683SOL    HW220382   4.871   5.045   1.389
 6684SOL     OW20383   4.835   4.919   1.100
 6684SOL    HW120384   4.795   4.963   1.181
 6684SOL    HW220385   4.794   4.956   1.017
 6685SOL     OW20386   4.639   3.813   1.402
 6685SOL    HW120387   4.664   3.793   1.307
 6685SOL    HW220388   4.711   3.869   1.444
 6686SOL     OW20389   4.704   4.840   1.719
 6686SOL    HW120390   4.605   4.846   1.729
 6686SOL    HW220391   4.727   4.760   1.663
 6687SOL     OW20392   4.429   4.774   0.368
 6687SOL    HW120393   4.415   4.781   0.467
 6687SOL    HW220394   4.513   4.723   0.350
 6688SOL     OW20395   4.134   4.537   1.251
 6688SOL    HW120396   4.220   4.549   1.301
 6688SOL    HW220397   4.092   4.450   1.278
 6689SOL     OW20398   4.998   4.110   1.262
 6689SOL    HW120399   5.019   4.184   1.326
 6689SOL    HW220400   4.909   4.127   1.219
 6690SOL     OW20401   4.091   4.824   0.501
 6690SOL    HW120402   4.084   4.907   0.445
 6690SOL    HW220403   4.095   4.744   0.441
 6691SOL     OW20404   4.290   4.261   0.865
 6691SOL    HW120405   4.302   4.327   0.791
 6691SOL    HW220406   4.336   4.295   0.948
 6692SOL     OW20407   4.976   5.072   0.388
 6692SOL    HW120408   5.026   5.149   0.428
 6692SOL    HW220409   4.881   5.074   0.420
 6693SOL     OW20410   4.996   5.169   1.142
 6693SOL    HW120411   5.043   5.182   1.229
 6693SOL    HW220412   4.930   5.095   1.151
 6694SOL     OW20413   4.078   5.234   1.329
 6694SOL    HW120414   4.057   5.190   1.242
 6694SOL    HW220415   4.175   5.260   1.332
 6695SOL     OW20416   4.126   4.475   1.598
 6695SOL    HW120417   4.194   4.530   1.551
 6695SOL    HW220418   4.166   4.387   1.625
 6696SOL     OW20419   4.737   3.829   1.770
 6696SOL    HW120420   4.743   3.914   1.718
 6696SOL    HW220421   4.769   3.753   1.713
 6697SOL     OW20422   4.228   3.774   1.740
 6697SOL    HW120423   4.186   3.717   1.670
 6697SOL    HW220424   4.162   3.843   1.772
 6698SOL     OW20425   4.297   4.594   1.029
 6698SOL    HW120426   4.341   4.683   1.020
 6698SOL    HW220427   4.234   4.594   1.106
 6699SOL     OW20428   5.084   4.586   1.045
 6699SOL    HW120429   5.009   4.586   0.979
 6699SOL    HW220430   5.121   4.494   1.054
 6700SOL     OW20431   4.933   4.249   0.275
 6700SOL    HW120432   4.946   4.165   0.329
 6700SOL    HW220433   4.904   4.323   0.335
 6701SOL     OW20434   4.031   3.937   1.231
 6701SOL    HW120435   4.008   3.974   1.321
 6701SOL    HW220436   4.001   3.842   1.225
 6702SOL     OW20437   3.761   5.034   1.282
 6702SOL    HW120438   3.814   4.985   1.350
 6702SOL    HW220439   3.783   5.132   1.287
 6703SOL     OW20440   4.456   4.358   1.064
 6703SOL    HW120441   4.515   4.332   0.988
 6703SOL    HW220442   4.428   4.454   1.053
 6704SOL     OW20443   4.031   3.787   0.618
 6704SOL    HW120444   4.020   3.881   0.651
 6704SOL    HW220445   4.026   3.724   0.695
 6705SOL     OW20446   5.346   4.091   0.374
 6705SOL    HW120447   5.348   4.015   0.438
 6705SOL    HW220448   5.298   4.168   0.414
 6706SOL     OW20449   4.747   4.490   0.966
 6706SOL    HW120450   4.762   4.511   1.062
 6706SOL    HW220451   4.717   4.395   0.957
 6707SOL     OW20452   4.074   4.622   1.804
 6707SOL    HW120453   4.150   4.666   1.852
 6707SOL    HW220454   4.109   4.575   1.722
 6708SOL     OW20455   5.027   4.562   0.042
 6708SOL    HW120456   5.061   4.469   0.057
 6708SOL    HW220457   5.045   4.589  -0.053
 6709SOL     OW20458   4.792   5.057   0.849
 6709SOL    HW120459   4.799   4.973   0.794
 6709SOL    HW220460   4.854   5.126   0.813
 6710SOL     OW20461   4.043   4.534   0.949
 6710SOL    HW120462   4.136   4.570   0.954
 6710SOL    HW220463   4.037   4.449   1.001
 6711SOL     OW20464   4.063   4.233   1.006
 6711SOL    HW120465   4.011   4.150   0.989
 6711SOL    HW220466   4.140   4.238   0.942
 6712SOL     OW20467   4.862   4.104   1.678
 6712SOL    HW120468   4.817   4.167   1.742
 6712SOL    HW220469   4.955   4.135   1.661
 6713SOL     OW20470   4.884   3.931   1.477
 6713SOL    HW120471   4.884   3.995   1.554
 6713SOL    HW220472   4.912   3.979   1.394
 6714SOL     OW20473   3.732   5.050   0.200
 6714SOL    HW120474   3.639   5.071   0.169
 6714SOL    HW220475   3.742   4.951   0.213
 6715SOL     OW20476   4.726   4.520   1.238
 6715SOL    HW120477   4.767   4.488   1.324
 6715SOL    HW220478   4.630   4.493   1.235
 6716SOL     OW20479   3.764   4.268   1.114
 6716SOL    HW120480   3.849   4.235   1.073
 6716SOL    HW220481   3.777   4.283   1.212
 6717SOL     OW20482   3.913   4.244   1.722
 6717SOL    HW120483   3.972   4.204   1.652
 6717SOL    HW220484   3.855   4.315   1.681
 6718SOL     OW20485   5.093   4.674   1.660
 6718SOL    HW120486   5.132   4.763   1.680
 6718SOL    HW220487   5.103   4.654   1.563
 6719SOL     OW20488   4.539   4.296   0.325
 6719SOL    HW120489   4.546   4.207   0.279
 6719SOL    HW220490   4.445   4.330   0.317
 6720SOL     OW20491   3.976   5.288   1.744
 6720SOL    HW120492   3.946   5.345   1.820
 6720SOL    HW220493   3.969   5.191   1.770
 6721SOL     OW20494   4.395   4.188   1.269
 6721SOL    HW120495   4.361   4.099   1.239
 6721SOL    HW220496   4.421   4.242   1.189
 6722SOL     OW20497   4.197   4.224   0.191
 6722SOL    HW120498   4.258   4.304   0.195
 6722SOL    HW220499   4.102   4.255   0.198
 6723SOL     OW20500   3.883   4.861   1.466
 6723SOL    HW120501   3.905   4.800   1.542
 6723SOL    HW220502   3.893   4.812   1.380
 6724SOL     OW20503   5.071   4.783   1.234
 6724SOL    HW120504   5.095   4.720   1.160
 6724SOL    HW220505   4.981   4.823   1.216
 6725SOL     OW20506   5.026   4.579   0.309
 6725SOL    HW120507   4.940   4.548   0.351
 6725SOL    HW220508   5.022   4.565   0.210
 6726SOL     OW20509   3.807   4.982   1.022
 6726SOL    HW120510   3.802   4.981   1.122
 6726SOL    HW220511   3.724   4.941   0.984
 6727SOL     OW20512   4.412   5.386   1.716
 6727SOL    HW120513   4.356   5.467   1.725
 6727SOL    HW220514   4.464   5.390   1.630
 6728SOL     OW20515   4.627   3.810   0.133
 6728SOL    HW120516   4.678   3.811   0.047
 6728SOL    HW220517   4.683   3.768   0.204
 6729SOL     OW20518   5.450   3.859   0.523
 6729SOL    HW120519   5.523   3.842   0.456
 6729SOL    HW220520   5.419   3.772   0.561
 6730SOL     OW20521   5.004   4.651   0.672
 6730SOL    HW120522   5.064   4.570   0.674
 6730SOL    HW220523   5.044   4.720   0.612
 6731SOL     OW20524   4.554   4.997   1.422
 6731SOL    HW120525   4.549   5.030   1.517
 6731SOL    HW220526   4.468   5.016   1.376
 6732SOL     OW20527   3.987   4.050   0.720
 6732SOL    HW120528   3.908   4.101   0.686
 6732SOL    HW220529   3.978   4.035   0.818
 6733SOL     OW20530   4.918   5.336   0.031
 6733SOL    HW120531   4.924   5.243   0.068
 6733SOL    HW220532   4.859   5.336  -0.049
 6734SOL     OW20533   4.546   4.726   1.372
 6734SOL    HW120534   4.586   4.725   1.280
 6734SOL    HW220535   4.556   4.818   1.412
 6735SOL     OW20536   4.640   4.634   0.291
 6735SOL    HW120537   4.703   4.672   0.223
 6735SOL    HW220538   4.680   4.551   0.330
 6736SOL     OW20539   4.096   5.012   1.490
 6736SOL    HW120540   4.083   5.105   1.456
 6736SOL    HW220541   4.012   4.960   1.477
 6737SOL     OW20542   4.763   4.822   0.696
 6737SOL    HW120543   4.693   4.775   0.750
 6737SOL    HW220544   4.822   4.754   0.653
 6738SOL     OW20545   4.738   3.960   0.971
 6738SOL    HW120546   4.730   3.924   0.878
 6738SOL    HW220547   4.736   3.884   1.036
 6739SOL     OW20548   3.979   5.072   0.290
 6739SOL    HW120549   3.883   5.073   0.263
 6739SOL    HW220550   3.991   5.125   0.374
 6740SOL     OW20551   3.829   4.737   1.726
 6740SOL    HW120552   3.752   4.704   1.780
 6740SOL    HW220553   3.914   4.707   1.768
 6741SOL     OW20554   4.396   3.927   1.489
 6741SOL    HW120555   4.486   3.911   1.449
 6741SOL    HW220556   4.404   3.932   1.588
 6742SOL     OW20557   3.799   4.069   0.033
 6742SOL    HW120558   3.707   4.041   0.004
 6742SOL    HW220559   3.830   4.146  -0.023
 6743SOL     OW20560   5.164   4.580   1.398
 6743SOL    HW120561   5.107   4.632   1.335
 6743SOL    HW220562   5.260   4.592   1.374
 6744SOL     OW20563   3.796   3.890   0.318
 6744SOL    HW120564   3.779   3.973   0.264
 6744SOL    HW220565   3.886   3.853   0.296
 6745SOL     OW20566   4.907   5.059   0.119
 6745SOL    HW120567   4.808   5.048   0.121
 6745SOL    HW220568   4.941   5.074   0.212
 6746SOL     OW20569   4.337   4.566   1.431
 6746SOL    HW120570   4.393   4.647   1.414
 6746SOL    HW220571   4.396   4.486   1.434
 6747SOL     OW20572   4.440   4.289   1.708
 6747SOL    HW120573   4.459   4.354   1.782
 6747SOL    HW220574   4.500   4.209   1.717
 6748SOL     OW20575   5.174   4.944   1.633
 6748SOL    HW120576   5.165   4.934   1.732
 6748SOL    HW220577   5.270   4.937   1.607
 6749SOL     OW20578   4.949   4.049   0.449
 6749SOL    HW120579   5.014   3.975   0.438
 6749SOL    HW220580   4.969   4.099   0.533
 6750SOL     OW20581   4.318   4.469   0.652
 6750SOL    HW120582   4.368   4.554   0.633
 6750SOL    HW220583   4.230   4.471   0.604
 6751SOL     OW20584   4.583   5.098   0.016
 6751SOL    HW120585   4.537   5.113   0.104
 6751SOL    HW220586   4.627   5.183  -0.014
 6752SOL     OW20587   4.583   4.680   0.861
 6752SOL    HW120588   4.637   4.611   0.909
 6752SOL    HW220589   4.551   4.749   0.927
 6753SOL     OW20590   4.807   4.708   0.087
 6753SOL    HW120591   4.784   4.761   0.005
 6753SOL    HW220592   4.888   4.652   0.068
 6754SOL     OW20593   3.945   5.038   1.844
 6754SOL    HW120594   3.880   4.965   1.823
 6754SOL    HW220595   3.949   5.052   1.942
 6755SOL     OW20596   3.803   4.964   0.653
 6755SOL    HW120597   3.802   4.917   0.741
 6755SOL    HW220598   3.885   4.936   0.602
 6756SOL     OW20599   4.396   5.115   1.624
 6756SOL    HW120600   4.318   5.065   1.662
 6756SOL    HW220601   4.393   5.210   1.655
 6757SOL     OW20602   4.152   4.148   0.520
 6757SOL    HW120603   4.182   4.076   0.458
 6757SOL    HW220604   4.113   4.108   0.603
 6758SOL     OW20605   5.429   5.211   1.104
 6758SOL    HW120606   5.336   5.186   1.077
 6758SOL    HW220607   5.455   5.161   1.186
 6759SOL     OW20608   4.041   4.271   1.280
 6759SOL    HW120609   4.079   4.212   1.352
 6759SOL    HW220610   4.081   4.245   1.192
 6760SOL     OW20611   5.148   3.938   1.112
 6760SOL    HW120612   5.200   3.873   1.167
 6760SOL    HW220613   5.099   4.001   1.173
 6761SOL     OW20614   4.725   3.758   1.154
 6761SOL    HW120615   4.662   3.686   1.123
 6761SOL    HW220616   4.818   3.722   1.154
 6762SOL     OW20617   4.494   5.054   0.301
 6762SOL    HW120618   4.448   4.967   0.318
 6762SOL    HW220619   4.585   5.051   0.342
 6763SOL     OW20620   4.342   5.291   1.284
 6763SOL    HW120621   4.337   5.373   1.341
 6763SOL    HW220622   4.431   5.288   1.239
 6764SOL     OW20623   5.076   3.776   0.168
 6764SOL    HW120624   5.111   3.735   0.084
 6764SOL    HW220625   4.986   3.738   0.188
 6765SOL     OW20626   5.024   4.177   0.691
 6765SOL    HW120627   4.965   4.257   0.695
 6765SOL    HW220628   5.039   4.142   0.784
 6766SOL     OW20629   5.317   3.945   0.882
 6766SOL    HW120630   5.233   3.944   0.936
 6766SOL    HW220631   5.319   4.028   0.826
 6767SOL     OW20632   3.763   4.801   0.300
 6767SOL    HW120633   3.862   4.790   0.291
 6767SOL    HW220634   3.723   4.715   0.332
 6768SOL     OW20635   3.954   4.352   1.975
 6768SOL    HW120636   3.861   4.350   2.012
 6768SOL    HW220637   3.955   4.313   1.883
 6769SOL     OW20638   3.949   3.999   2.858
 6769SOL    HW120639   3.984   3.982   2.950
 6769SOL    HW220640   3.861   3.954   2.846
 6770SOL     OW20641   3.743   4.092   2.509
 6770SOL    HW120642   3.661   4.135   2.548
 6770SOL    HW220643   3.715   4.019   2.446
 6771SOL     OW20644   4.293   4.999   3.027
 6771SOL    HW120645   4.200   4.992   2.990
 6771SOL    HW220646   4.304   5.088   3.071
 6772SOL     OW20647   5.279   5.235   2.565
 6772SOL    HW120648   5.222   5.219   2.646
 6772SOL    HW220649   5.220   5.245   2.485
 6773SOL     OW20650   4.859   4.427   2.579
 6773SOL    HW120651   4.916   4.505   2.554
 6773SOL    HW220652   4.799   4.453   2.655
 6774SOL     OW20653   4.492   4.868   2.885
 6774SOL    HW120654   4.414   4.885   2.945
 6774SOL    HW220655   4.526   4.955   2.849
 6775SOL     OW20656   4.574   4.522   3.685
 6775SOL    HW120657   4.570   4.598   3.750
 6775SOL    HW220658   4.596   4.558   3.594
 6776SOL     OW20659   4.409   4.736   2.527
 6776SOL    HW120660   4.478   4.720   2.597
 6776SOL    HW220661   4.336   4.793   2.565
 6777SOL     OW20662   4.410   4.885   3.665
 6777SOL    HW120663   4.470   4.964   3.679
 6777SOL    HW220664   4.324   4.916   3.624
 6778SOL     OW20665   4.059   5.159   2.923
 6778SOL    HW120666   3.981   5.128   2.870
 6778SOL    HW220667   4.117   5.217   2.866
 6779SOL     OW20668   5.184   5.229   3.201
 6779SOL    HW120669   5.208   5.323   3.227
 6779SOL    HW220670   5.168   5.175   3.283
 6780SOL     OW20671   4.162   4.116   3.361
 6780SOL    HW120672   4.244   4.060   3.370
 6780SOL    HW220673   4.081   4.058   3.365
 6781SOL     OW20674   4.851   5.065   3.552
 6781SOL    HW120675   4.898   5.065   3.640
 6781SOL    HW220676   4.803   4.978   3.541
 6782SOL     OW20677   3.954   5.158   2.400
 6782SOL    HW120678   3.928   5.254   2.400
 6782SOL    HW220679   3.883   5.104   2.445
 6783SOL     OW20680   3.964   4.815   2.748
 6783SOL    HW120681   3.978   4.731   2.800
 6783SOL    HW220682   3.909   4.879   2.803
 6784SOL     OW20683   4.330   4.688   1.985
 6784SOL    HW120684   4.337   4.772   1.931
 6784SOL    HW220685   4.376   4.701   2.073
 6785SOL     OW20686   3.846   4.367   2.425
 6785SOL    HW120687   3.801   4.279   2.442
 6785SOL    HW220688   3.845   4.421   2.509
 6786SOL     OW20689   3.751   5.320   1.979
 6786SOL    HW120690   3.732   5.224   2.000
 6786SOL    HW220691   3.718   5.378   2.054
 6787SOL     OW20692   5.413   4.646   2.474
 6787SOL    HW120693   5.508   4.617   2.482
 6787SOL    HW220694   5.405   4.711   2.399
 6788SOL     OW20695   3.837   4.461   3.459
 6788SOL    HW120696   3.925   4.448   3.504
 6788SOL    HW220697   3.824   4.558   3.437
 6789SOL     OW20698   4.337   5.089   2.588
 6789SOL    HW120699   4.288   5.002   2.597
 6789SOL    HW220700   4.314   5.132   2.501
 6790SOL     OW20701   5.017   4.952   3.285
 6790SOL    HW120702   5.054   4.879   3.227
 6790SOL    HW220703   5.069   4.957   3.370
 6791SOL     OW20704   4.533   3.728   2.364
 6791SOL    HW120705   4.573   3.819   2.355
 6791SOL    HW220706   4.433   3.736   2.370
 6792SOL     OW20707   3.921   4.700   3.126
 6792SOL    HW120708   4.010   4.655   3.112
 6792SOL    HW220709   3.848   4.635   3.107
 6793SOL     OW20710   4.041   3.975   3.663
 6793SOL    HW120711   4.112   4.046   3.669
 6793SOL    HW220712   3.953   4.014   3.691
 6794SOL     OW20713   5.190   5.141   2.815
 6794SOL    HW120714   5.131   5.147   2.895
 6794SOL    HW220715   5.175   5.053   2.769
 6795SOL     OW20716   5.391   5.438   2.434
 6795SOL    HW120717   5.350   5.415   2.346
 6795SOL    HW220718   5.373   5.364   2.499
 6796SOL     OW20719   4.322   4.453   2.132
 6796SOL    HW120720   4.346   4.522   2.064
 6796SOL    HW220721   4.244   4.486   2.186
 6797SOL     OW20722   5.005   4.069   2.806
 6797SOL    HW120723   4.919   4.019   2.793
 6797SOL    HW220724   5.067   4.015   2.862
 6798SOL     OW20725   4.531   4.329   3.327
 6798SOL    HW120726   4.484   4.326   3.416
 6798SOL    HW220727   4.480   4.274   3.261
 6799SOL     OW20728   5.118   4.193   3.536
 6799SOL    HW120729   5.098   4.236   3.624
 6799SOL    HW220730   5.196   4.131   3.545
 6800SOL     OW20731   4.697   4.614   3.434
 6800SOL    HW120732   4.743   4.530   3.405
 6800SOL    HW220733   4.641   4.648   3.359
 6801SOL     OW20734   4.715   4.134   3.104
 6801SOL    HW120735   4.638   4.168   3.158
 6801SOL    HW220736   4.681   4.083   3.025
 6802SOL     OW20737   4.765   4.425   2.291
 6802SOL    HW120738   4.791   4.421   2.387
 6802SOL    HW220739   4.680   4.374   2.277
 6803SOL     OW20740   3.800   4.535   2.651
 6803SOL    HW120741   3.899   4.523   2.660
 6803SOL    HW220742   3.776   4.630   2.672
 6804SOL     OW20743   4.589   4.072   2.057
 6804SOL    HW120744   4.648   4.135   2.008
 6804SOL    HW220745   4.608   3.978   2.028
 6805SOL     OW20746   5.086   4.868   2.407
 6805SOL    HW120747   5.169   4.839   2.359
 6805SOL    HW220748   5.037   4.935   2.351
 6806SOL     OW20749   4.274   3.920   2.747
 6806SOL    HW120750   4.269   3.915   2.847
 6806SOL    HW220751   4.276   4.016   2.718
 6807SOL     OW20752   4.732   5.180   2.339
 6807SOL    HW120753   4.686   5.252   2.287
 6807SOL    HW220754   4.728   5.200   2.437
 6808SOL     OW20755   4.951   5.274   3.368
 6808SOL    HW120756   4.957   5.197   3.432
 6808SOL    HW220757   4.899   5.248   3.288
 6809SOL     OW20758   4.045   4.667   2.104
 6809SOL    HW120759   4.127   4.706   2.062
 6809SOL    HW220760   4.018   4.585   2.055
 6810SOL     OW20761   4.185   4.990   3.589
 6810SOL    HW120762   4.135   4.991   3.503
 6810SOL    HW220763   4.122   4.972   3.665
 6811SOL     OW20764   4.835   5.500   2.099
 6811SOL    HW120765   4.775   5.438   2.149
 6811SOL    HW220766   4.866   5.456   2.014
 6812SOL     OW20767   3.926   4.009   3.360
 6812SOL    HW120768   3.846   4.069   3.347
 6812SOL    HW220769   3.916   3.960   3.446
 6813SOL     OW20770   5.124   3.831   2.288
 6813SOL    HW120771   5.100   3.794   2.198
 6813SOL    HW220772   5.223   3.847   2.292
 6814SOL     OW20773   4.106   4.424   2.342
 6814SOL    HW120774   4.151   4.334   2.339
 6814SOL    HW220775   4.012   4.413   2.375
 6815SOL     OW20776   4.338   3.846   1.979
 6815SOL    HW120777   4.436   3.824   1.986
 6815SOL    HW220778   4.307   3.829   1.886
 6816SOL     OW20779   4.505   3.988   3.611
 6816SOL    HW120780   4.572   3.927   3.654
 6816SOL    HW220781   4.432   4.007   3.676
 6817SOL     OW20782   5.075   4.314   3.295
 6817SOL    HW120783   5.103   4.271   3.380
 6817SOL    HW220784   5.100   4.410   3.296
 6818SOL     OW20785   4.527   5.126   2.786
 6818SOL    HW120786   4.617   5.140   2.744
 6818SOL    HW220787   4.456   5.128   2.715
 6819SOL     OW20788   4.646   4.227   2.761
 6819SOL    HW120789   4.621   4.218   2.665
 6819SOL    HW220790   4.694   4.145   2.792
 6820SOL     OW20791   4.263   3.788   2.374
 6820SOL    HW120792   4.182   3.789   2.432
 6820SOL    HW220793   4.266   3.871   2.319
 6821SOL     OW20794   5.158   4.912   1.903
 6821SOL    HW120795   5.190   4.836   1.960
 6821SOL    HW220796   5.066   4.939   1.933
 6822SOL     OW20797   4.021   3.759   2.033
 6822SOL    HW120798   4.070   3.843   2.012
 6822SOL    HW220799   4.083   3.694   2.078
 6823SOL     OW20800   4.659   3.960   2.342
 6823SOL    HW120801   4.611   4.001   2.264
 6823SOL    HW220802   4.758   3.958   2.323
 6824SOL     OW20803   4.800   4.407   3.326
 6824SOL    HW120804   4.720   4.346   3.329
 6824SOL    HW220805   4.881   4.354   3.302
 6825SOL     OW20806   4.951   5.294   2.655
 6825SOL    HW120807   4.972   5.368   2.590
 6825SOL    HW220808   5.019   5.294   2.728
 6826SOL     OW20809   4.183   4.876   2.603
 6826SOL    HW120810   4.112   4.849   2.668
 6826SOL    HW220811   4.157   4.848   2.510
 6827SOL     OW20812   4.756   4.273   1.878
 6827SOL    HW120813   4.715   4.355   1.839
 6827SOL    HW220814   4.820   4.299   1.951
 6828SOL     OW20815   3.802   4.280   3.248
 6828SOL    HW120816   3.894   4.279   3.207
 6828SOL    HW220817   3.796   4.354   3.315
 6829SOL     OW20818   4.285   3.946   3.009
 6829SOL    HW120819   4.323   3.862   3.046
 6829SOL    HW220820   4.197   3.965   3.053
 6830SOL     OW20821   4.590   4.178   2.504
 6830SOL    HW120822   4.558   4.250   2.442
 6830SOL    HW220823   4.614   4.097   2.451
 6831SOL     OW20824   4.741   3.763   2.615
 6831SOL    HW120825   4.669   3.768   2.546
 6831SOL    HW220826   4.717   3.694   2.684
 6832SOL     OW20827   5.153   4.897   2.729
 6832SOL    HW120828   5.098   4.813   2.722
 6832SOL    HW220829   5.179   4.926   2.637
 6833SOL     OW20830   4.212   5.109   2.036
 6833SOL    HW120831   4.125   5.094   2.083
 6833SOL    HW220832   4.195   5.135   1.941
 6834SOL     OW20833   5.114   4.299   1.940
 6834SOL    HW120834   5.060   4.278   2.021
 6834SOL    HW220835   5.205   4.258   1.949
 6835SOL     OW20836   4.251   3.980   2.190
 6835SOL    HW120837   4.278   3.921   2.115
 6835SOL    HW220838   4.251   4.075   2.159
 6836SOL     OW20839   4.788   5.071   3.202
 6836SOL    HW120840   4.708   5.048   3.257
 6836SOL    HW220841   4.871   5.045   3.251
 6837SOL     OW20842   4.835   4.919   2.962
 6837SOL    HW120843   4.795   4.963   3.043
 6837SOL    HW220844   4.794   4.956   2.879
 6838SOL     OW20845   4.639   3.813   3.264
 6838SOL    HW120846   4.664   3.793   3.169
 6838SOL    HW220847   4.711   3.869   3.306
 6839SOL     OW20848   4.704   4.840   3.581
 6839SOL    HW120849   4.605   4.846   3.591
 6839SOL    HW220850   4.727   4.760   3.525
 6840SOL     OW20851   4.429   4.774   2.230
 6840SOL    HW120852   4.415   4.781   2.329
 6840SOL    HW220853   4.513   4.723   2.212
 6841SOL     OW20854   4.134   4.537   3.113
 6841SOL    HW120855   4.220   4.549   3.163
 6841SOL    HW220856   4.092   4.450   3.140
 6842SOL     OW20857   4.998   4.110   3.124
 6842SOL    HW120858   5.019   4.184   3.188
 6842SOL    HW220859   4.909   4.127   3.081
 6843SOL     OW20860   4.091   4.824   2.363
 6843SOL    HW120861   4.084   4.907   2.307
 6843SOL    HW220862   4.095   4.744   2.303
 6844SOL     OW20863   4.290   4.261   2.727
 6844SOL    HW120864   4.302   4.327   2.653
 6844SOL    HW220865   4.336   4.295   2.810
 6845SOL     OW20866   4.976   5.072   2.250
 6845SOL    HW120867   5.026   5.149   2.290
 6845SOL    HW220868   4.881   5.074   2.282
 6846SOL     OW20869   4.996   5.169   3.004
 6846SOL    HW120870   5.043   5.182   3.091
 6846SOL    HW220871   4.930   5.095   3.013
 6847SOL     OW20872   4.078   5.234   3.191
 6847SOL    HW120873   4.057   5.190   3.104
 6847SOL    HW220874   4.175   5.260   3.194
 6848SOL     OW20875   4.126   4.475   3.460
 6848SOL    HW120876   4.194   4.530   3.413
 6848SOL    HW220877   4.166   4.387   3.487
 6849SOL     OW20878   4.737   3.829   3.632
 6849SOL    HW120879   4.743   3.914   3.580
 6849SOL    HW220880   4.769   3.753   3.575
 6850SOL     OW20881   4.228   3.774   3.602
 6850SOL    HW120882   4.186   3.717   3.532
 6850SOL    HW220883   4.162   3.843   3.634
 6851SOL     OW20884   4.297   4.594   2.891
 6851SOL    HW120885   4.341   4.683   2.882
 6851SOL    HW220886   4.234   4.594   2.968
 6852SOL     OW20887   5.084   4.586   2.907
 6852SOL    HW120888   5.009   4.586   2.841
 6852SOL    HW220889   5.121   4.494   2.916
 6853SOL     OW20890   4.933   4.249   2.137
 6853SOL    HW120891   4.946   4.165   2.191
 6853SOL    HW220892   4.904   4.323   2.197
 6854SOL     OW20893   4.031   3.937   3.093
 6854SOL    HW120894   4.008   3.974   3.183
 6854SOL    HW220895   4.001   3.842   3.087
 6855SOL     OW20896   3.761   5.034   3.144
 6855SOL    HW120897   3.814   4.985   3.212
 6855SOL    HW220898   3.783   5.132   3.149
 6856SOL     OW20899   4.456   4.358   2.926
 6856SOL    HW120900   4.515   4.332   2.850
 6856SOL    HW220901   4.428   4.454   2.915
 6857SOL     OW20902   4.031   3.787   2.480
 6857SOL    HW120903   4.020   3.881   2.513
 6857SOL    HW220904   4.026   3.724   2.557
 6858SOL     OW20905   5.346   4.091   2.236
 6858SOL    HW120906   5.348   4.015   2.300
 6858SOL    HW220907   5.298   4.168   2.276
 6859SOL     OW20908   4.747   4.490   2.828
 6859SOL    HW120909   4.762   4.511   2.924
 6859SOL    HW220910   4.717   4.395   2.819
 6860SOL     OW20911   4.074   4.622   3.666
 6860SOL    HW120912   4.150   4.666   3.714
 6860SOL    HW220913   4.109   4.575   3.584
 6861SOL     OW20914   5.027   4.562   1.904
 6861SOL    HW120915   5.061   4.469   1.919
 6861SOL    HW220916   5.045   4.589   1.809
 6862SOL     OW20917   4.792   5.057   2.711
 6862SOL    HW120918   4.799   4.973   2.656
 6862SOL    HW220919   4.854   5.126   2.675
 6863SOL     OW20920   4.043   4.534   2.811
 6863SOL    HW120921   4.136   4.570   2.816
 6863SOL    HW220922   4.037   4.449   2.863
 6864SOL     OW20923   4.063   4.233   2.868
 6864SOL    HW120924   4.011   4.150   2.851
 6864SOL    HW220925   4.140   4.238   2.804
 6865SOL     OW20926   4.862   4.104   3.540
 6865SOL    HW120927   4.817   4.167   3.604
 6865SOL    HW220928   4.955   4.135   3.523
 6866SOL     OW20929   4.884   3.931   3.339
 6866SOL    HW120930   4.884   3.995   3.416
 6866SOL    HW220931   4.912   3.979   3.256
 6867SOL     OW20932   3.732   5.050   2.062
 6867SOL    HW120933   3.639   5.071   2.031
 6867SOL    HW220934   3.742   4.951   2.075
 6868SOL     OW20935   4.726   4.520   3.100
 6868SOL    HW120936   4.767   4.488   3.186
 6868SOL    HW220937   4.630   4.493   3.097
 6869SOL     OW20938   3.764   4.268   2.976
 6869SOL    HW120939   3.849   4.235   2.935
 6869SOL    HW220940   3.777   4.283   3.074
 6870SOL     OW20941   3.913   4.244   3.584
 6870SOL    HW120942   3.972   4.204   3.514
 6870SOL    HW220943   3.855   4.315   3.543
 6871SOL     OW20944   5.093   4.674   3.522
 6871SOL    HW120945   5.132   4.763   3.542
 6871SOL    HW220946   5.103   4.654   3.425
 6872SOL     OW20947   4.539   4.296   2.187
 6872SOL    HW120948   4.546   4.207   2.141
 6872SOL    HW220949   4.445   4.330   2.179
 6873SOL     OW20950   3.976   5.288   3.606
 6873SOL    HW120951   3.946   5.345   3.682
 6873SOL    HW220952   3.969   5.191   3.632
 6874SOL     OW20953   4.395   4.188   3.131
 6874SOL    HW120954   4.361   4.099   3.101
 6874SOL    HW220955   4.421   4.242   3.051
 6875SOL     OW20956   4.197   4.224   2.053
 6875SOL    HW120957   4.258   4.304   2.057
 6875SOL    HW220958   4.102   4.255   2.060
 6876SOL     OW20959   3.883   4.861   3.328
 6876SOL    HW120960   3.905   4.800   3.404
 6876SOL    HW220961   3.893   4.812   3.242
 6877SOL     OW20962   5.071   4.783   3.096
 6877SOL    HW120963   5.095   4.720   3.022
 6877SOL    HW220964   4.981   4.823   3.078
 6878SOL     OW20965   5.026   4.579   2.171
 6878SOL    HW120966   4.940   4.548   2.213
 6878SOL    HW220967   5.022   4.565   2.072
 6879SOL     OW20968   3.807   4.982   2.884
 6879SOL    HW120969   3.802   4.981   2.984
 6879SOL    HW220970   3.724   4.941   2.846
 6880SOL     OW20971   4.412   5.386   3.578
 6880SOL    HW120972   4.356   5.467   3.587
 6880SOL    HW220973   4.464   5.390   3.492
 6881SOL     OW20974   5.450   3.859   2.385
 6881SOL    HW120975   5.523   3.842   2.318
 6881SOL    HW220976   5.419   3.772   2.423
 6882SOL     OW20977   5.004   4.651   2.534
 6882SOL    HW120978   5.064   4.570   2.536
 6882SOL    HW220979   5.044   4.720   2.474
 6883SOL     OW20980   4.554   4.997   3.284
 6883SOL    HW120981   4.549   5.030   3.379
 6883SOL    HW220982   4.468   5.016   3.238
 6884SOL     OW20983   3.987   4.050   2.582
 6884SOL    HW120984   3.908   4.101   2.548
 6884SOL    HW220985   3.978   4.035   2.680
 6885SOL     OW20986   4.546   4.726   3.234
 6885SOL    HW120987   4.586   4.725   3.142
 6885SOL    HW220988   4.556   4.818   3.274
 6886SOL     OW20989   4.640   4.634   2.153
 6886SOL    HW120990   4.703   4.672   2.085
 6886SOL    HW220991   4.680   4.551   2.192
 6887SOL     OW20992   4.096   5.012   3.352
 6887SOL    HW120993   4.083   5.105   3.318
 6887SOL    HW220994   4.012   4.960   3.339
 6888SOL     OW20995   4.763   4.822   2.558
 6888SOL    HW120996   4.693   4.775   2.612
 6888SOL    HW220997   4.822   4.754   2.515
 6889SOL     OW20998   4.738   3.960   2.833
 6889SOL    HW120999   4.730   3.924   2.740
 6889SOL    HW221000   4.736   3.884   2.898
 6890SOL     OW21001   3.979   5.072   2.152
 6890SOL    HW121002   3.883   5.073   2.125
 6890SOL    HW221003   3.991   5.125   2.236
 6891SOL     OW21004   3.829   4.737   3.588
 6891SOL    HW121005   3.752   4.704   3.642
 6891SOL    HW221006   3.914   4.707   3.630
 6892SOL     OW21007   4.396   3.927   3.351
 6892SOL    HW121008   4.486   3.911   3.311
 6892SOL    HW221009   4.404   3.932   3.450
 6893SOL     OW21010   3.799   4.069   1.895
 6893SOL    HW121011   3.707   4.041   1.866
 6893SOL    HW221012   3.830   4.146   1.839
 6894SOL     OW21013   5.164   4.580   3.260
 6894SOL    HW121014   5.107   4.632   3.197
 6894SOL    HW221015   5.260   4.592   3.236
 6895SOL     OW21016   3.796   3.890   2.180
 6895SOL    HW121017   3.779   3.973   2.126
 6895SOL    HW221018   3.886   3.853   2.158
 6896SOL     OW21019   4.907   5.059   1.981
 6896SOL    HW121020   4.808   5.048   1.983
 6896SOL    HW221021   4.941   5.074   2.074
 6897SOL     OW21022   4.337   4.566   3.293
 6897SOL    HW121023   4.393   4.647   3.276
 6897SOL    HW221024   4.396   4.486   3.296
 6898SOL     OW21025   4.440   4.289   3.570
 6898SOL    HW121026   4.459   4.354   3.644
 6898SOL    HW221027   4.500   4.209   3.579
 6899SOL     OW21028   5.174   4.944   3.495
 6899SOL    HW121029   5.165   4.934   3.594
 6899SOL    HW221030   5.270   4.937   3.469
 6900SOL     OW21031   4.949   4.049   2.311
 6900SOL    HW121032   5.014   3.975   2.300
 6900SOL    HW221033   4.969   4.099   2.395
 6901SOL     OW21034   4.318   4.469   2.514
 6901SOL    HW121035   4.368   4.554   2.495
 6901SOL    HW221036   4.230   4.471   2.466
 6902SOL     OW21037   4.583   5.098   1.878
 6902SOL    HW121038   4.537   5.113   1.966
 6902SOL    HW221039   4.627   5.183   1.848
 6903SOL     OW21040   4.583   4.680   2.723
 6903SOL    HW121041   4.637   4.611   2.771
 6903SOL    HW221042   4.551   4.749   2.789
 6904SOL     OW21043   4.807   4.708   1.949
 6904SOL    HW121044   4.784   4.761   1.867
 6904SOL    HW221045   4.888   4.652   1.930
 6905SOL     OW21046   3.945   5.038   3.706
 6905SOL    HW121047   3.880   4.965   3.685
 6905SOL    HW221048   3.949   5.052   3.804
 6906SOL     OW21049   3.803   4.964   2.515
 6906SOL    HW121050   3.802   4.917   2.603
 6906SOL    HW221051   3.885   4.936   2.464
 6907SOL     OW21052   4.396   5.115   3.486
 6907SOL    HW121053   4.318   5.065   3.524
 6907SOL    HW221054   4.393   5.210   3.517
 6908SOL     OW21055   4.152   4.148   2.382
 6908SOL    HW121056   4.182   4.076   2.320
 6908SOL    HW221057   4.113   4.108   2.465
 6909SOL     OW21058   5.429   5.211   2.966
 6909SOL    HW121059   5.336   5.186   2.939
 6909SOL    HW221060   5.455   5.161   3.048
 6910SOL     OW21061   4.041   4.271   3.142
 6910SOL    HW121062   4.079   4.212   3.214
 6910SOL    HW221063   4.081   4.245   3.054
 6911SOL     OW21064   5.148   3.938   2.974
 6911SOL    HW121065   5.200   3.873   3.029
 6911SOL    HW221066   5.099   4.001   3.035
 6912SOL     OW21067   4.725   3.758   3.016
 6912SOL    HW121068   4.662   3.686   2.985
 6912SOL    HW221069   4.818   3.722   3.016
 6913SOL     OW21070   4.494   5.054   2.163
 6913SOL    HW121071   4.448   4.967   2.180
 6913SOL    HW221072   4.585   5.051   2.204
 6914SOL     OW21073   4.342   5.291   3.146
 6914SOL    HW121074   4.337   5.373   3.203
 6914SOL    HW221075   4.431   5.288   3.101
 6915SOL     OW21076   5.076   3.776   2.030
 6915SOL    HW121077   5.111   3.735   1.946
 6915SOL    HW221078   4.986   3.738   2.050
 6916SOL     OW21079   5.024   4.177   2.553
 6916SOL    HW121080   4.965   4.257   2.557
 6916SOL    HW221081   5.039   4.142   2.646
 6917SOL     OW21082   5.317   3.945   2.744
 6917SOL    HW121083   5.233   3.944   2.798
 6917SOL    HW221084   5.319   4.028   2.688
 6918SOL     OW21085   3.763   4.801   2.162
 6918SOL    HW121086   3.862   4.790   2.153
 6918SOL    HW221087   3.723   4.715   2.194
 6919SOL     OW21088   3.954   4.352   3.837
 6919SOL    HW121089   3.861   4.350   3.874
 6919SOL    HW221090   3.955   4.313   3.745
 6920SOL     OW21091   3.949   3.999   4.720
 6920SOL    HW121092   3.984   3.982   4.812
 6920SOL    HW221093   3.861   3.954   4.708
 6921SOL     OW21094   3.743   4.092   4.371
 6921SOL    HW121095   3.661   4.135   4.410
 6921SOL    HW221096   3.715   4.019   4.308
 6922SOL     OW21097   4.293   4.999   4.889
 6922SOL    HW121098   4.200   4.992   4.852
 6922SOL    HW221099   4.304   5.088   4.933
 6923SOL     OW21100   5.279   5.235   4.427
 6923SOL    HW121101   5.222   5.219   4.508
 6923SOL    HW221102   5.220   5.245   4.347
 6924SOL     OW21103   4.859   4.427   4.441
 6924SOL    HW121104   4.916   4.505   4.416
 6924SOL    HW221105   4.799   4.453   4.517
 6925SOL     OW21106   4.492   4.868   4.747
 6925SOL    HW121107   4.414   4.885   4.807
 6925SOL    HW221108   4.526   4.955   4.711
 6926SOL     OW21109   4.574   4.522   5.547
 6926SOL    HW121110   4.570   4.598   5.612
 6926SOL    HW221111   4.596   4.558   5.456
 6927SOL     OW21112   4.409   4.736   4.389
 6927SOL    HW121113   4.478   4.720   4.459
 6927SOL    HW221114   4.336   4.793   4.427
 6928SOL     OW21115   4.410   4.885   5.527
 6928SOL    HW121116   4.470   4.964   5.541
 6928SOL    HW221117   4.324   4.916   5.486
 6929SOL     OW21118   4.059   5.159   4.785
 6929SOL    HW121119   3.981   5.128   4.732
 6929SOL    HW221120   4.117   5.217   4.728
 6930SOL     OW21121   5.184   5.229   5.063
 6930SOL    HW121122   5.208   5.323   5.089
 6930SOL    HW221123   5.168   5.175   5.145
 6931SOL     OW21124   4.162   4.116   5.223
 6931SOL    HW121125   4.244   4.060   5.232
 6931SOL    HW221126   4.081   4.058   5.227
 6932SOL     OW21127   4.851   5.065   5.414
 6932SOL    HW121128   4.898   5.065   5.502
 6932SOL    HW221129   4.803   4.978   5.403
 6933SOL     OW21130   3.954   5.158   4.262
 6933SOL    HW121131   3.928   5.254   4.262
 6933SOL    HW221132   3.883   5.104   4.307
 6934SOL     OW21133   3.964   4.815   4.610
 6934SOL    HW121134   3.978   4.731   4.662
 6934SOL    HW221135   3.909   4.879   4.665
 6935SOL     OW21136   4.330   4.688   3.847
 6935SOL    HW121137   4.337   4.772   3.793
 6935SOL    HW221138   4.376   4.701   3.935
 6936SOL     OW21139   3.846   4.367   4.287
 6936SOL    HW121140   3.801   4.279   4.304
 6936SOL    HW221141   3.845   4.421   4.371
 6937SOL     OW21142   3.751   5.320   3.841
 6937SOL    HW121143   3.732   5.224   3.862
 6937SOL    HW221144   3.718   5.378   3.916
 6938SOL     OW21145   5.413   4.646   4.336
 6938SOL    HW121146   5.508   4.617   4.344
 6938SOL    HW221147   5.405   4.711   4.261
 6939SOL     OW21148   3.837   4.461   5.321
 6939SOL    HW121149   3.925   4.448   5.366
 6939SOL    HW221150   3.824   4.558   5.299
 6940SOL     OW21151   4.337   5.089   4.450
 6940SOL    HW121152   4.288   5.002   4.459
 6940SOL    HW221153   4.314   5.132   4.363
 6941SOL     OW21154   5.017   4.952   5.147
 6941SOL    HW121155   5.054   4.879   5.089
 6941SOL    HW221156   5.069   4.957   5.232
 6942SOL     OW21157   4.533   3.728   4.226
 6942SOL    HW121158   4.573   3.819   4.217
 6942SOL    HW221159   4.433   3.736   4.232
 6943SOL     OW21160   3.921   4.700   4.988
 6943SOL    HW121161   4.010   4.655   4.974
 6943SOL    HW221162   3.848   4.635   4.969
 6944SOL     OW21163   4.041   3.975   5.525
 6944SOL    HW121164   4.112   4.046   5.531
 6944SOL    HW221165   3.953   4.014   5.553
 6945SOL     OW21166   5.190   5.141   4.677
 6945SOL    HW121167   5.131   5.147   4.757
 6945SOL    HW221168   5.175   5.053   4.631
 6946SOL     OW21169   5.391   5.438   4.296
 6946SOL    HW121170   5.350   5.415   4.208
 6946SOL    HW221171   5.373   5.364   4.361
 6947SOL     OW21172   4.322   4.453   3.994
 6947SOL    HW121173   4.346   4.522   3.926
 6947SOL    HW221174   4.244   4.486   4.048
 6948SOL     OW21175   5.005   4.069   4.668
 6948SOL    HW121176   4.919   4.019   4.655
 6948SOL    HW221177   5.067   4.015   4.724
 6949SOL     OW21178   4.531   4.329   5.189
 6949SOL    HW121179   4.484   4.326   5.278
 6949SOL    HW221180   4.480   4.274   5.123
 6950SOL     OW21181   5.118   4.193   5.398
 6950SOL    HW121182   5.098   4.236   5.486
 6950SOL    HW221183   5.196   4.131   5.407
 6951SOL     OW21184   4.697   4.614   5.296
 6951SOL    HW121185   4.743   4.530   5.267
 6951SOL    HW221186   4.641   4.648   5.221
 6952SOL     OW21187   4.715   4.134   4.966
 6952SOL    HW121188   4.638   4.168   5.020
 6952SOL    HW221189   4.681   4.083   4.887
 6953SOL     OW21190   4.765   4.425   4.153
 6953SOL    HW121191   4.791   4.421   4.249
 6953SOL    HW221192   4.680   4.374   4.139
 6954SOL     OW21193   3.800   4.535   4.513
 6954SOL    HW121194   3.899   4.523   4.522
 6954SOL    HW221195   3.776   4.630   4.534
 6955SOL     OW21196   4.589   4.072   3.919
 6955SOL    HW121197   4.648   4.135   3.870
 6955SOL    HW221198   4.608   3.978   3.890
 6956SOL     OW21199   5.086   4.868   4.269
 6956SOL    HW121200   5.169   4.839   4.221
 6956SOL    HW221201   5.037   4.935   4.213
 6957SOL     OW21202   4.274   3.920   4.609
 6957SOL    HW121203   4.269   3.915   4.709
 6957SOL    HW221204   4.276   4.016   4.580
 6958SOL     OW21205   4.732   5.180   4.201
 6958SOL    HW121206   4.686   5.252   4.149
 6958SOL    HW221207   4.728   5.200   4.299
 6959SOL     OW21208   4.951   5.274   5.230
 6959SOL    HW121209   4.957   5.197   5.294
 6959SOL    HW221210   4.899   5.248   5.150
 6960SOL     OW21211   4.045   4.667   3.966
 6960SOL    HW121212   4.127   4.706   3.924
 6960SOL    HW221213   4.018   4.585   3.917
 6961SOL     OW21214   4.185   4.990   5.451
 6961SOL    HW121215   4.135   4.991   5.365
 6961SOL    HW221216   4.122   4.972   5.527
 6962SOL     OW21217   4.835   5.500   3.961
 6962SOL    HW121218   4.775   5.438   4.011
 6962SOL    HW221219   4.866   5.456   3.876
 6963SOL     OW21220   3.926   4.009   5.222
 6963SOL    HW121221   3.846   4.069   5.209
 6963SOL    HW221222   3.916   3.960   5.308
 6964SOL     OW21223   5.124   3.831   4.150
 6964SOL    HW121224   5.100   3.794   4.060
 6964SOL    HW221225   5.223   3.847   4.154
 6965SOL     OW21226   4.106   4.424   4.204
 6965SOL    HW121227   4.151   4.334   4.201
 6965SOL    HW221228   4.012   4.413   4.237
 6966SOL     OW21229   4.338   3.846   3.841
 6966SOL    HW121230   4.436   3.824   3.848
 6966SOL    HW221231   4.307   3.829   3.748
 6967SOL     OW21232   4.505   3.988   5.473
 6967SOL    HW121233   4.572   3.927   5.516
 6967SOL    HW221234   4.432   4.007   5.538
 6968SOL     OW21235   5.075   4.314   5.157
 6968SOL    HW121236   5.103   4.271   5.242
 6968SOL    HW221237   5.100   4.410   5.158
 6969SOL     OW21238   4.527   5.126   4.648
 6969SOL    HW121239   4.617   5.140   4.606
 6969SOL    HW221240   4.456   5.128   4.577
 6970SOL     OW21241   4.646   4.227   4.623
 6970SOL    HW121242   4.621   4.218   4.527
 6970SOL    HW221243   4.694   4.145   4.654
 6971SOL     OW21244   4.263   3.788   4.236
 6971SOL    HW121245   4.182   3.789   4.294
 6971SOL    HW221246   4.266   3.871   4.181
 6972SOL     OW21247   5.158   4.912   3.765
 6972SOL    HW121248   5.190   4.836   3.822
 6972SOL    HW221249   5.066   4.939   3.795
 6973SOL     OW21250   4.021   3.759   3.895
 6973SOL    HW121251   4.070   3.843   3.874
 6973SOL    HW221252   4.083   3.694   3.940
 6974SOL     OW21253   4.659   3.960   4.204
 6974SOL    HW121254   4.611   4.001   4.126
 6974SOL    HW221255   4.758   3.958   4.185
 6975SOL     OW21256   4.800   4.407   5.188
 6975SOL    HW121257   4.720   4.346   5.191
 6975SOL    HW221258   4.881   4.354   5.164
 6976SOL     OW21259   4.951   5.294   4.517
 6976SOL    HW121260   4.972   5.368   4.452
 6976SOL    HW221261   5.019   5.294   4.590
 6977SOL     OW21262   4.183   4.876   4.465
 6977SOL    HW121263   4.112   4.849   4.530
 6977SOL    HW221264   4.157   4.848   4.372
 6978SOL     OW21265   4.756   4.273   3.740
 6978SOL    HW121266   4.715   4.355   3.701
 6978SOL    HW221267   4.820   4.299   3.813
 6979SOL     OW21268   3.802   4.280   5.110
 6979SOL    HW121269   3.894   4.279   5.069
 6979SOL    HW221270   3.796   4.354   5.177
 6980SOL     OW21271   4.285   3.946   4.871
 6980SOL    HW121272   4.323   3.862   4.908
 6980SOL    HW221273   4.197   3.965   4.915
 6981SOL     OW21274   4.590   4.178   4.366
 6981SOL    HW121275   4.558   4.250   4.304
 6981SOL    HW221276   4.614   4.097   4.313
 6982SOL     OW21277   4.741   3.763   4.477
 6982SOL    HW121278   4.669   3.768   4.408
 6982SOL    HW221279   4.717   3.694   4.546
 6983SOL     OW21280   5.153   4.897   4.591
 6983SOL    HW121281   5.098   4.813   4.584
 6983SOL    HW221282   5.179   4.926   4.499
 6984SOL     OW21283   4.212   5.109   3.898
 6984SOL    HW121284   4.125   5.094   3.945
 6984SOL    HW221285   4.195   5.135   3.803
 6985SOL     OW21286   5.114   4.299   3.802
 6985SOL    HW121287   5.060   4.278   3.883
 6985SOL    HW221288   5.205   4.258   3.811
 6986SOL     OW21289   4.251   3.980   4.052
 6986SOL    HW121290   4.278   3.921   3.977
 6986SOL    HW221291   4.251   4.075   4.021
 6987SOL     OW21292   4.788   5.071   5.064
 6987SOL    HW121293   4.708   5.048   5.119
 6987SOL    HW221294   4.871   5.045   5.113
 6988SOL     OW21295   4.835   4.919   4.824
 6988SOL    HW121296   4.795   4.963   4.905
 6988SOL    HW221297   4.794   4.956   4.741
 6989SOL     OW21298   4.639   3.813   5.126
 6989SOL    HW121299   4.664   3.793   5.031
 6989SOL    HW221300   4.711   3.869   5.168
 6990SOL     OW21301   4.704   4.840   5.443
 6990SOL    HW121302   4.605   4.846   5.453
 6990SOL    HW221303   4.727   4.760   5.387
 6991SOL     OW21304   4.429   4.774   4.092
 6991SOL    HW121305   4.415   4.781   4.191
 6991SOL    HW221306   4.513   4.723   4.074
 6992SOL     OW21307   4.134   4.537   4.975
 6992SOL    HW121308   4.220   4.549   5.025
 6992SOL    HW221309   4.092   4.450   5.002
 6993SOL     OW21310   4.998   4.110   4.986
 6993SOL    HW121311   5.019   4.184   5.050
 6993SOL    HW221312   4.909   4.127   4.943
 6994SOL     OW21313   4.091   4.824   4.225
 6994SOL    HW121314   4.084   4.907   4.169
 6994SOL    HW221315   4.095   4.744   4.165
 6995SOL     OW21316   4.290   4.261   4.589
 6995SOL    HW121317   4.302   4.327   4.515
 6995SOL    HW221318   4.336   4.295   4.672
 6996SOL     OW21319   4.976   5.072   4.112
 6996SOL    HW121320   5.026   5.149   4.152
 6996SOL    HW221321   4.881   5.074   4.144
 6997SOL     OW21322   4.996   5.169   4.866
 6997SOL    HW121323   5.043   5.182   4.953
 6997SOL    HW221324   4.930   5.095   4.875
 6998SOL     OW21325   4.078   5.234   5.053
 6998SOL    HW121326   4.057   5.190   4.966
 6998SOL    HW221327   4.175   5.260   5.056
 6999SOL     OW21328   4.126   4.475   5.322
 6999SOL    HW121329   4.194   4.530   5.275
 6999SOL    HW221330   4.166   4.387   5.349
 7000SOL     OW21331   4.737   3.829   5.494
 7000SOL    HW121332   4.743   3.914   5.442
 7000SOL    HW221333   4.769   3.753   5.437
 7001SOL     OW21334   4.228   3.774   5.464
 7001SOL    HW121335   4.186   3.717   5.394
 7001SOL    HW221336   4.162   3.843   5.496
 7002SOL     OW21337   4.297   4.594   4.753
 7002SOL    HW121338   4.341   4.683   4.744
 7002SOL    HW221339   4.234   4.594   4.830
 7003SOL     OW21340   5.084   4.586   4.769
 7003SOL    HW121341   5.009   4.586   4.703
 7003SOL    HW221342   5.121   4.494   4.778
 7004SOL     OW21343   4.933   4.249   3.999
 7004SOL    HW121344   4.946   4.165   4.053
 7004SOL    HW221345   4.904   4.323   4.059
 7005SOL     OW21346   4.031   3.937   4.955
 7005SOL    HW121347   4.008   3.974   5.045
 7005SOL    HW221348   4.001   3.842   4.949
 7006SOL     OW21349   3.761   5.034   5.006
 7006SOL    HW121350   3.814   4.985   5.074
 7006SOL    HW221351   3.783   5.132   5.011
 7007SOL     OW21352   4.456   4.358   4.788
 7007SOL    HW121353   4.515   4.332   4.712
 7007SOL    HW221354   4.428   4.454   4.777
 7008SOL     OW21355   4.031   3.787   4.342
 7008SOL    HW121356   4.020   3.881   4.375
 7008SOL    HW221357   4.026   3.724   4.419
 7009SOL     OW21358   5.346   4.091   4.098
 7009SOL    HW121359   5.348   4.015   4.162
 7009SOL    HW221360   5.298   4.168   4.138
 7010SOL     OW21361   4.747   4.490   4.690
 7010SOL    HW121362   4.762   4.511   4.786
 7010SOL    HW221363   4.717   4.395   4.681
 7011SOL     OW21364   4.074   4.622   5.528
 7011SOL    HW121365   4.150   4.666   5.576
 7011SOL    HW221366   4.109   4.575   5.446
 7012SOL     OW21367   5.027   4.562   3.766
 7012SOL    HW121368   5.061   4.469   3.781
 7012SOL    HW221369   5.045   4.589   3.671
 7013SOL     OW21370   4.792   5.057   4.573
 7013SOL    HW121371   4.799   4.973   4.518
 7013SOL    HW221372   4.854   5.126   4.537
 7014SOL     OW21373   4.043   4.534   4.673
 7014SOL    HW121374   4.136   4.570   4.678
 7014SOL    HW221375   4.037   4.449   4.725
 7015SOL     OW21376   4.063   4.233   4.730
 7015SOL    HW121377   4.011   4.150   4.713
 7015SOL    HW221378   4.140   4.238   4.666
 7016SOL     OW21379   4.862   4.104   5.402
 7016SOL    HW121380   4.817   4.167   5.466
 7016SOL    HW221381   4.955   4.135   5.385
 7017SOL     OW21382   4.884   3.931   5.201
 7017SOL    HW121383   4.884   3.995   5.278
 7017SOL    HW221384   4.912   3.979   5.118
 7018SOL     OW21385   3.732   5.050   3.924
 7018SOL    HW121386   3.639   5.071   3.893
 7018SOL    HW221387   3.742   4.951   3.937
 7019SOL     OW21388   4.726   4.520   4.962
 7019SOL    HW121389   4.767   4.488   5.048
 7019SOL    HW221390   4.630   4.493   4.959
 7020SOL     OW21391   3.764   4.268   4.838
 7020SOL    HW121392   3.849   4.235   4.797
 7020SOL    HW221393   3.777   4.283   4.936
 7021SOL     OW21394   3.913   4.244   5.446
 7021SOL    HW121395   3.972   4.204   5.376
 7021SOL    HW221396   3.855   4.315   5.405
 7022SOL     OW21397   5.093   4.674   5.384
 7022SOL    HW121398   5.132   4.763   5.404
 7022SOL    HW221399   5.103   4.654   5.287
 7023SOL     OW21400   4.539   4.296   4.049
 7023SOL    HW121401   4.546   4.207   4.003
 7023SOL    HW221402   4.445   4.330   4.041
 7024SOL     OW21403   3.976   5.288   5.468
 7024SOL    HW121404   3.946   5.345   5.544
 7024SOL    HW221405   3.969   5.191   5.494
 7025SOL     OW21406   4.395   4.188   4.993
 7025SOL    HW121407   4.361   4.099   4.963
 7025SOL    HW221408   4.421   4.242   4.913
 7026SOL     OW21409   4.197   4.224   3.915
 7026SOL    HW121410   4.258   4.304   3.919
 7026SOL    HW221411   4.102   4.255   3.922
 7027SOL     OW21412   3.883   4.861   5.190
 7027SOL    HW121413   3.905   4.800   5.266
 7027SOL    HW221414   3.893   4.812   5.104
 7028SOL     OW21415   5.071   4.783   4.958
 7028SOL    HW121416   5.095   4.720   4.884
 7028SOL    HW221417   4.981   4.823   4.940
 7029SOL     OW21418   5.026   4.579   4.033
 7029SOL    HW121419   4.940   4.548   4.075
 7029SOL    HW221420   5.022   4.565   3.934
 7030SOL     OW21421   3.807   4.982   4.746
 7030SOL    HW121422   3.802   4.981   4.846
 7030SOL    HW221423   3.724   4.941   4.708
 7031SOL     OW21424   4.412   5.386   5.440
 7031SOL    HW121425   4.356   5.467   5.449
 7031SOL    HW221426   4.464   5.390   5.354
 7032SOL     OW21427   5.450   3.859   4.247
 7032SOL    HW121428   5.523   3.842   4.180
 7032SOL    HW221429   5.419   3.772   4.285
 7033SOL     OW21430   5.004   4.651   4.396
 7033SOL    HW121431   5.064   4.570   4.398
 7033SOL    HW221432   5.044   4.720   4.336
 7034SOL     OW21433   4.554   4.997   5.146
 7034SOL    HW121434   4.549   5.030   5.241
 7034SOL    HW221435   4.468   5.016   5.100
 7035SOL     OW21436   3.987   4.050   4.444
 7035SOL    HW121437   3.908   4.101   4.410
 7035SOL    HW221438   3.978   4.035   4.542
 7036SOL     OW21439   4.546   4.726   5.096
 7036SOL    HW121440   4.586   4.725   5.004
 7036SOL    HW221441   4.556   4.818   5.136
 7037SOL     OW21442   4.640   4.634   4.015
 7037SOL    HW121443   4.703   4.672   3.947
 7037SOL    HW221444   4.680   4.551   4.054
 7038SOL     OW21445   4.096   5.012   5.214
 7038SOL    HW121446   4.083   5.105   5.180
 7038SOL    HW221447   4.012   4.960   5.201
 7039SOL     OW21448   4.763   4.822   4.420
 7039SOL    HW121449   4.693   4.775   4.474
 7039SOL    HW221450   4.822   4.754   4.377
 7040SOL     OW21451   4.738   3.960   4.695
 7040SOL    HW121452   4.730   3.924   4.602
 7040SOL    HW221453   4.736   3.884   4.760
 7041SOL     OW21454   3.979   5.072   4.014
 7041SOL    HW121455   3.883   5.073   3.987
 7041SOL    HW221456   3.991   5.125   4.098
 7042SOL     OW21457   3.829   4.737   5.450
 7042SOL    HW121458   3.752   4.704   5.504
 7042SOL    HW221459   3.914   4.707   5.492
 7043SOL     OW21460   4.396   3.927   5.213
 7043SOL    HW121461   4.486   3.911   5.173
 7043SOL    HW221462   4.404   3.932   5.312
 7044SOL     OW21463   3.799   4.069   3.757
 7044SOL    HW121464   3.707   4.041   3.728
 7044SOL    HW221465   3.830   4.146   3.701
 7045SOL     OW21466   5.164   4.580   5.122
 7045SOL    HW121467   5.107   4.632   5.059
 7045SOL    HW221468   5.260   4.592   5.098
 7046SOL     OW21469   3.796   3.890   4.042
 7046SOL    HW121470   3.779   3.973   3.988
 7046SOL    HW221471   3.886   3.853   4.020
 7047SOL     OW21472   4.907   5.059   3.843
 7047SOL    HW121473   4.808   5.048   3.845
 7047SOL    HW221474   4.941   5.074   3.936
 7048SOL     OW21475   4.337   4.566   5.155
 7048SOL    HW121476   4.393   4.647   5.138
 7048SOL    HW221477   4.396   4.486   5.158
 7049SOL     OW21478   4.440   4.289   5.432
 7049SOL    HW121479   4.459   4.354   5.506
 7049SOL    HW221480   4.500   4.209   5.441
 7050SOL     OW21481   5.174   4.944   5.357
 7050SOL    HW121482   5.165   4.934   5.456
 7050SOL    HW221483   5.270   4.937   5.331
 7051SOL     OW21484   4.949   4.049   4.173
 7051SOL    HW121485   5.014   3.975   4.162
 7051SOL    HW221486   4.969   4.099   4.257
 7052SOL     OW21487   4.318   4.469   4.376
 7052SOL    HW121488   4.368   4.554   4.357
 7052SOL    HW221489   4.230   4.471   4.328
 7053SOL     OW21490   4.583   5.098   3.740
 7053SOL    HW121491   4.537   5.113   3.828
 7053SOL    HW221492   4.627   5.183   3.710
 7054SOL     OW21493   4.583   4.680   4.585
 7054SOL    HW121494   4.637   4.611   4.633
 7054SOL    HW221495   4.551   4.749   4.651
 7055SOL     OW21496   4.807   4.708   3.811
 7055SOL    HW121497   4.784   4.761   3.729
 7055SOL    HW221498   4.888   4.652   3.792
 7056SOL     OW21499   3.945   5.038   5.568
 7056SOL    HW121500   3.880   4.965   5.547
 7056SOL    HW221501   3.949   5.052   5.666
 7057SOL     OW21502   3.803   4.964   4.377
 7057SOL    HW121503   3.802   4.917   4.465
 7057SOL    HW221504   3.885   4.936   4.326
 7058SOL     OW21505   4.396   5.115   5.348
 7058SOL    HW121506   4.318   5.065   5.386
 7058SOL    HW221507   4.393   5.210   5.379
 7059SOL     OW21508   4.152   4.148   4.244
 7059SOL    HW121509   4.182   4.076   4.182
 7059SOL    HW221510   4.113   4.108   4.327
 7060SOL     OW21511   5.429   5.211   4.828
 7060SOL    HW121512   5.336   5.186   4.801
 7060SOL    HW221513   5.455   5.161   4.910
 7061SOL     OW21514   4.041   4.271   5.004
 7061SOL    HW121515   4.079   4.212   5.076
 7061SOL    HW221516   4.081   4.245   4.916
 7062SOL     OW21517   5.148   3.938   4.836
 7062SOL    HW121518   5.200   3.873   4.891
 7062SOL    HW221519   5.099   4.001   4.897
 7063SOL     OW21520   4.725   3.758   4.878
 7063SOL    HW121521   4.662   3.686   4.847
 7063SOL    HW221522   4.818   3.722   4.878
 7064SOL     OW21523   4.494   5.054   4.025
 7064SOL    HW121524   4.448   4.967   4.042
 7064SOL    HW221525   4.585   5.051   4.066
 7065SOL     OW21526   4.342   5.291   5.008
 7065SOL    HW121527   4.337   5.373   5.065
 7065SOL    HW221528   4.431   5.288   4.963
 7066SOL     OW21529   5.076   3.776   3.892
 7066SOL    HW121530   5.111   3.735   3.808
 7066SOL    HW221531   4.986   3.738   3.912
 7067SOL     OW21532   5.024   4.177   4.415
 7067SOL    HW121533   4.965   4.257   4.419
 7067SOL    HW221534   5.039   4.142   4.508
 7068SOL     OW21535   5.317   3.945   4.606
 7068SOL    HW121536   5.233   3.944   4.660
 7068SOL    HW221537   5.319   4.028   4.550
 7069SOL     OW21538   3.763   4.801   4.024
 7069SOL    HW121539   3.862   4.790   4.015
 7069SOL    HW221540   3.723   4.715   4.056
 7070SOL     OW21541   3.954   4.352   5.699
 7070SOL    HW121542   3.861   4.350   5.736
 7070SOL    HW221543   3.955   4.313   5.607
 7071SOL     OW21544   3.949   3.999   6.582
 7071SOL    HW121545   3.984   3.982   6.674
 7071SOL    HW221546   3.861   3.954   6.570
 7072SOL     OW21547   3.743   4.092   6.233
 7072SOL    HW121548   3.661   4.135   6.272
 7072SOL    HW221549   3.715   4.019   6.170
 7073SOL     OW21550   4.293   4.999   6.751
 7073SOL    HW121551   4.200   4.992   6.714
 7073SOL    HW221552   4.304   5.088   6.795
 7074SOL     OW21553   5.279   5.235   6.289
 7074SOL    HW121554   5.222   5.219   6.370
 7074SOL    HW221555   5.220   5.245   6.209
 7075SOL     OW21556   4.859   4.427   6.303
 7075SOL    HW121557   4.916   4.505   6.278
 7075SOL    HW221558   4.799   4.453   6.379
 7076SOL     OW21559   4.492   4.868   6.609
 7076SOL    HW121560   4.414   4.885   6.669
 7076SOL    HW221561   4.526   4.955   6.573
 7077SOL     OW21562   4.574   4.522   7.409
 7077SOL    HW121563   4.570   4.598   7.474
 7077SOL    HW221564   4.596   4.558   7.318
 7078SOL     OW21565   4.409   4.736   6.251
 7078SOL    HW121566   4.478   4.720   6.321
 7078SOL    HW221567   4.336   4.793   6.289
 7079SOL     OW21568   4.410   4.885   7.389
 7079SOL    HW121569   4.470   4.964   7.403
 7079SOL    HW221570   4.324   4.916   7.348
 7080SOL     OW21571   4.059   5.159   6.647
 7080SOL    HW121572   3.981   5.128   6.594
 7080SOL    HW221573   4.117   5.217   6.590
 7081SOL     OW21574   5.184   5.229   6.925
 7081SOL    HW121575   5.208   5.323   6.951
 7081SOL    HW221576   5.168   5.175   7.007
 7082SOL     OW21577   4.162   4.116   7.085
 7082SOL    HW121578   4.244   4.060   7.094
 7082SOL    HW221579   4.081   4.058   7.089
 7083SOL     OW21580   4.851   5.065   7.276
 7083SOL    HW121581   4.898   5.065   7.364
 7083SOL    HW221582   4.803   4.978   7.265
 7084SOL     OW21583   3.954   5.158   6.124
 7084SOL    HW121584   3.928   5.254   6.124
 7084SOL    HW221585   3.883   5.104   6.169
 7085SOL     OW21586   3.964   4.815   6.472
 7085SOL    HW121587   3.978   4.731   6.524
 7085SOL    HW221588   3.909   4.879   6.527
 7086SOL     OW21589   4.330   4.688   5.709
 7086SOL    HW121590   4.337   4.772   5.655
 7086SOL    HW221591   4.376   4.701   5.797
 7087SOL     OW21592   3.846   4.367   6.149
 7087SOL    HW121593   3.801   4.279   6.166
 7087SOL    HW221594   3.845   4.421   6.233
 7088SOL     OW21595   3.751   5.320   5.703
 7088SOL    HW121596   3.732   5.224   5.724
 7088SOL    HW221597   3.718   5.378   5.778
 7089SOL     OW21598   5.413   4.646   6.198
 7089SOL    HW121599   5.508   4.617   6.206
 7089SOL    HW221600   5.405   4.711   6.123
 7090SOL     OW21601   3.837   4.461   7.183
 7090SOL    HW121602   3.925   4.448   7.228
 7090SOL    HW221603   3.824   4.558   7.161
 7091SOL     OW21604   4.337   5.089   6.312
 7091SOL    HW121605   4.288   5.002   6.321
 7091SOL    HW221606   4.314   5.132   6.225
 7092SOL     OW21607   5.017   4.952   7.009
 7092SOL    HW121608   5.054   4.879   6.951
 7092SOL    HW221609   5.069   4.957   7.094
 7093SOL     OW21610   4.533   3.728   6.088
 7093SOL    HW121611   4.573   3.819   6.079
 7093SOL    HW221612   4.433   3.736   6.094
 7094SOL     OW21613   3.921   4.700   6.850
 7094SOL    HW121614   4.010   4.655   6.836
 7094SOL    HW221615   3.848   4.635   6.831
 7095SOL     OW21616   4.041   3.975   7.387
 7095SOL    HW121617   4.112   4.046   7.393
 7095SOL    HW221618   3.953   4.014   7.415
 7096SOL     OW21619   5.190   5.141   6.539
 7096SOL    HW121620   5.131   5.147   6.619
 7096SOL    HW221621   5.175   5.053   6.493
 7097SOL     OW21622   5.391   5.438   6.158
 7097SOL    HW121623   5.350   5.415   6.070
 7097SOL    HW221624   5.373   5.364   6.223
 7098SOL     OW21625   4.322   4.453   5.856
 7098SOL    HW121626   4.346   4.522   5.788
 7098SOL    HW221627   4.244   4.486   5.910
 7099SOL     OW21628   5.005   4.069   6.530
 7099SOL    HW121629   4.919   4.019   6.517
 7099SOL    HW221630   5.067   4.015   6.586
 7100SOL     OW21631   4.531   4.329   7.051
 7100SOL    HW121632   4.484   4.326   7.140
 7100SOL    HW221633   4.480   4.274   6.985
 7101SOL     OW21634   5.118   4.193   7.260
 7101SOL    HW121635   5.098   4.236   7.348
 7101SOL    HW221636   5.196   4.131   7.269
 7102SOL     OW21637   4.697   4.614   7.158
 7102SOL    HW121638   4.743   4.530   7.129
 7102SOL    HW221639   4.641   4.648   7.083
 7103SOL     OW21640   4.715   4.134   6.828
 7103SOL    HW121641   4.638   4.168   6.882
 7103SOL    HW221642   4.681   4.083   6.749
 7104SOL     OW21643   4.765   4.425   6.015
 7104SOL    HW121644   4.791   4.421   6.111
 7104SOL    HW221645   4.680   4.374   6.001
 7105SOL     OW21646   3.800   4.535   6.375
 7105SOL    HW121647   3.899   4.523   6.384
 7105SOL    HW221648   3.776   4.630   6.396
 7106SOL     OW21649   4.589   4.072   5.781
 7106SOL    HW121650   4.648   4.135   5.732
 7106SOL    HW221651   4.608   3.978   5.752
 7107SOL     OW21652   5.086   4.868   6.131
 7107SOL    HW121653   5.169   4.839   6.083
 7107SOL    HW221654   5.037   4.935   6.075
 7108SOL     OW21655   4.274   3.920   6.471
 7108SOL    HW121656   4.269   3.915   6.571
 7108SOL    HW221657   4.276   4.016   6.442
 7109SOL     OW21658   4.732   5.180   6.063
 7109SOL    HW121659   4.686   5.252   6.011
 7109SOL    HW221660   4.728   5.200   6.161
 7110SOL     OW21661   4.951   5.274   7.092
 7110SOL    HW121662   4.957   5.197   7.156
 7110SOL    HW221663   4.899   5.248   7.012
 7111SOL     OW21664   4.045   4.667   5.828
 7111SOL    HW121665   4.127   4.706   5.786
 7111SOL    HW221666   4.018   4.585   5.779
 7112SOL     OW21667   4.185   4.990   7.313
 7112SOL    HW121668   4.135   4.991   7.227
 7112SOL    HW221669   4.122   4.972   7.389
 7113SOL     OW21670   4.835   5.500   5.823
 7113SOL    HW121671   4.775   5.438   5.873
 7113SOL    HW221672   4.866   5.456   5.738
 7114SOL     OW21673   3.926   4.009   7.084
 7114SOL    HW121674   3.846   4.069   7.071
 7114SOL    HW221675   3.916   3.960   7.170
 7115SOL     OW21676   5.124   3.831   6.012
 7115SOL    HW121677   5.100   3.794   5.922
 7115SOL    HW221678   5.223   3.847   6.016
 7116SOL     OW21679   4.106   4.424   6.066
 7116SOL    HW121680   4.151   4.334   6.063
 7116SOL    HW221681   4.012   4.413   6.099
 7117SOL     OW21682   4.338   3.846   5.703
 7117SOL    HW121683   4.436   3.824   5.710
 7117SOL    HW221684   4.307   3.829   5.610
 7118SOL     OW21685   4.505   3.988   7.335
 7118SOL    HW121686   4.572   3.927   7.378
 7118SOL    HW221687   4.432   4.007   7.400
 7119SOL     OW21688   5.075   4.314   7.019
 7119SOL    HW121689   5.103   4.271   7.104
 7119SOL    HW221690   5.100   4.410   7.020
 7120SOL     OW21691   4.527   5.126   6.510
 7120SOL    HW121692   4.617   5.140   6.468
 7120SOL    HW221693   4.456   5.128   6.439
 7121SOL     OW21694   4.646   4.227   6.485
 7121SOL    HW121695   4.621   4.218   6.389
 7121SOL    HW221696   4.694   4.145   6.516
 7122SOL     OW21697   4.263   3.788   6.098
 7122SOL    HW121698   4.182   3.789   6.156
 7122SOL    HW221699   4.266   3.871   6.043
 7123SOL     OW21700   5.158   4.912   5.627
 7123SOL    HW121701   5.190   4.836   5.684
 7123SOL    HW221702   5.066   4.939   5.657
 7124SOL     OW21703   4.021   3.759   5.757
 7124SOL    HW121704   4.070   3.843   5.736
 7124SOL    HW221705   4.083   3.694   5.802
 7125SOL     OW21706   4.659   3.960   6.066
 7125SOL    HW121707   4.611   4.001   5.988
 7125SOL    HW221708   4.758   3.958   6.047
 7126SOL     OW21709   4.800   4.407   7.050
 7126SOL    HW121710   4.720   4.346   7.053
 7126SOL    HW221711   4.881   4.354   7.026
 7127SOL     OW21712   4.951   5.294   6.379
 7127SOL    HW121713   4.972   5.368   6.314
 7127SOL    HW221714   5.019   5.294   6.452
 7128SOL     OW21715   4.183   4.876   6.327
 7128SOL    HW121716   4.112   4.849   6.392
 7128SOL    HW221717   4.157   4.848   6.234
 7129SOL     OW21718   4.756   4.273   5.602
 7129SOL    HW121719   4.715   4.355   5.563
 7129SOL    HW221720   4.820   4.299   5.675
 7130SOL     OW21721   3.802   4.280   6.972
 7130SOL    HW121722   3.894   4.279   6.931
 7130SOL    HW221723   3.796   4.354   7.039
 7131SOL     OW21724   4.285   3.946   6.733
 7131SOL    HW121725   4.323   3.862   6.770
 7131SOL    HW221726   4.197   3.965   6.777
 7132SOL     OW21727   4.590   4.178   6.228
 7132SOL    HW121728   4.558   4.250   6.166
 7132SOL    HW221729   4.614   4.097   6.175
 7133SOL     OW21730   4.741   3.763   6.339
 7133SOL    HW121731   4.669   3.768   6.270
 7133SOL    HW221732   4.717   3.694   6.408
 7134SOL     OW21733   5.153   4.897   6.453
 7134SOL    HW121734   5.098   4.813   6.446
 7134SOL    HW221735   5.179   4.926   6.361
 7135SOL     OW21736   4.212   5.109   5.760
 7135SOL    HW121737   4.125   5.094   5.807
 7135SOL    HW221738   4.195   5.135   5.665
 7136SOL     OW21739   5.114   4.299   5.664
 7136SOL    HW121740   5.060   4.278   5.745
 7136SOL    HW221741   5.205   4.258   5.673
 7137SOL     OW21742   4.251   3.980   5.914
 7137SOL    HW121743   4.278   3.921   5.839
 7137SOL    HW221744   4.251   4.075   5.883
 7138SOL     OW21745   4.788   5.071   6.926
 7138SOL    HW121746   4.708   5.048   6.981
 7138SOL    HW221747   4.871   5.045   6.975
 7139SOL     OW21748   4.835   4.919   6.686
 7139SOL    HW121749   4.795   4.963   6.767
 7139SOL    HW221750   4.794   4.956   6.603
 7140SOL     OW21751   4.639   3.813   6.988
 7140SOL    HW121752   4.664   3.793   6.893
 7140SOL    HW221753   4.711   3.869   7.030
 7141SOL     OW21754   4.704   4.840   7.305
 7141SOL    HW121755   4.605   4.846   7.315
 7141SOL    HW221756   4.727   4.760   7.249
 7142SOL     OW21757   4.429   4.774   5.954
 7142SOL    HW121758   4.415   4.781   6.053
 7142SOL    HW221759   4.513   4.723   5.936
 7143SOL     OW21760   4.134   4.537   6.837
 7143SOL    HW121761   4.220   4.549   6.887
 7143SOL    HW221762   4.092   4.450   6.864
 7144SOL     OW21763   4.998   4.110   6.848
 7144SOL    HW121764   5.019   4.184   6.912
 7144SOL    HW221765   4.909   4.127   6.805
 7145SOL     OW21766   4.091   4.824   6.087
 7145SOL    HW121767   4.084   4.907   6.031
 7145SOL    HW221768   4.095   4.744   6.027
 7146SOL     OW21769   4.290   4.261   6.451
 7146SOL    HW121770   4.302   4.327   6.377
 7146SOL    HW221771   4.336   4.295   6.534
 7147SOL     OW21772   4.976   5.072   5.974
 7147SOL    HW121773   5.026   5.149   6.014
 7147SOL    HW221774   4.881   5.074   6.006
 7148SOL     OW21775   4.996   5.169   6.728
 7148SOL    HW121776   5.043   5.182   6.815
 7148SOL    HW221777   4.930   5.095   6.737
 7149SOL     OW21778   4.078   5.234   6.915
 7149SOL    HW121779   4.057   5.190   6.828
 7149SOL    HW221780   4.175   5.260   6.918
 7150SOL     OW21781   4.126   4.475   7.184
 7150SOL    HW121782   4.194   4.530   7.137
 7150SOL    HW221783   4.166   4.387   7.211
 7151SOL     OW21784   4.737   3.829   7.356
 7151SOL    HW121785   4.743   3.914   7.304
 7151SOL    HW221786   4.769   3.753   7.299
 7152SOL     OW21787   4.228   3.774   7.326
 7152SOL    HW121788   4.186   3.717   7.256
 7152SOL    HW221789   4.162   3.843   7.358
 7153SOL     OW21790   4.297   4.594   6.615
 7153SOL    HW121791   4.341   4.683   6.606
 7153SOL    HW221792   4.234   4.594   6.692
 7154SOL     OW21793   5.084   4.586   6.631
 7154SOL    HW121794   5.009   4.586   6.565
 7154SOL    HW221795   5.121   4.494   6.640
 7155SOL     OW21796   4.933   4.249   5.861
 7155SOL    HW121797   4.946   4.165   5.915
 7155SOL    HW221798   4.904   4.323   5.921
 7156SOL     OW21799   4.031   3.937   6.817
 7156SOL    HW121800   4.008   3.974   6.907
 7156SOL    HW221801   4.001   3.842   6.811
 7157SOL     OW21802   3.761   5.034   6.868
 7157SOL    HW121803   3.814   4.985   6.936
 7157SOL    HW221804   3.783   5.132   6.873
 7158SOL     OW21805   4.456   4.358   6.650
 7158SOL    HW121806   4.515   4.332   6.574
 7158SOL    HW221807   4.428   4.454   6.639
 7159SOL     OW21808   4.031   3.787   6.204
 7159SOL    HW121809   4.020   3.881   6.237
 7159SOL    HW221810   4.026   3.724   6.281
 7160SOL     OW21811   5.346   4.091   5.960
 7160SOL    HW121812   5.348   4.015   6.024
 7160SOL    HW221813   5.298   4.168   6.000
 7161SOL     OW21814   4.747   4.490   6.552
 7161SOL    HW121815   4.762   4.511   6.648
 7161SOL    HW221816   4.717   4.395   6.543
 7162SOL     OW21817   4.074   4.622   7.390
 7162SOL    HW121818   4.150   4.666   7.438
 7162SOL    HW221819   4.109   4.575   7.308
 7163SOL     OW21820   5.027   4.562   5.628
 7163SOL    HW121821   5.061   4.469   5.643
 7163SOL    HW221822   5.045   4.589   5.533
 7164SOL     OW21823   4.792   5.057   6.435
 7164SOL    HW121824   4.799   4.973   6.380
 7164SOL    HW221825   4.854   5.126   6.399
 7165SOL     OW21826   4.043   4.534   6.535
 7165SOL    HW121827   4.136   4.570   6.540
 7165SOL    HW221828   4.037   4.449   6.587
 7166SOL     OW21829   4.063   4.233   6.592
 7166SOL    HW121830   4.011   4.150   6.575
 7166SOL    HW221831   4.140   4.238   6.528
 7167SOL     OW21832   4.862   4.104   7.264
 7167SOL    HW121833   4.817   4.167   7.328
 7167SOL    HW221834   4.955   4.135   7.247
 7168SOL     OW21835   4.884   3.931   7.063
 7168SOL    HW121836   4.884   3.995   7.140
 7168SOL    HW221837   4.912   3.979   6.980
 7169SOL     OW21838   3.732   5.050   5.786
 7169SOL    HW121839   3.639   5.071   5.755
 7169SOL    HW221840   3.742   4.951   5.799
 7170SOL     OW21841   4.726   4.520   6.824
 7170SOL    HW121842   4.767   4.488   6.910
 7170SOL    HW221843   4.630   4.493   6.821
 7171SOL     OW21844   3.764   4.268   6.700
 7171SOL    HW121845   3.849   4.235   6.659
 7171SOL    HW221846   3.777   4.283   6.798
 7172SOL     OW21847   3.913   4.244   7.308
 7172SOL    HW121848   3.972   4.204   7.238
 7172SOL    HW221849   3.855   4.315   7.267
 7173SOL     OW21850   5.093   4.674   7.246
 7173SOL    HW121851   5.132   4.763   7.266
 7173SOL    HW221852   5.103   4.654   7.149
 7174SOL     OW21853   4.539   4.296   5.911
 7174SOL    HW121854   4.546   4.207   5.865
 7174SOL    HW221855   4.445   4.330   5.903
 7175SOL     OW21856   3.976   5.288   7.330
 7175SOL    HW121857   3.946   5.345   7.406
 7175SOL    HW221858   3.969   5.191   7.356
 7176SOL     OW21859   4.395   4.188   6.855
 7176SOL    HW121860   4.361   4.099   6.825
 7176SOL    HW221861   4.421   4.242   6.775
 7177SOL     OW21862   4.197   4.224   5.777
 7177SOL    HW121863   4.258   4.304   5.781
 7177SOL    HW221864   4.102   4.255   5.784
 7178SOL     OW21865   3.883   4.861   7.052
 7178SOL    HW121866   3.905   4.800   7.128
 7178SOL    HW221867   3.893   4.812   6.966
 7179SOL     OW21868   5.071   4.783   6.820
 7179SOL    HW121869   5.095   4.720   6.746
 7179SOL    HW221870   4.981   4.823   6.802
 7180SOL     OW21871   5.026   4.579   5.895
 7180SOL    HW121872   4.940   4.548   5.937
 7180SOL    HW221873   5.022   4.565   5.796
 7181SOL     OW21874   3.807   4.982   6.608
 7181SOL    HW121875   3.802   4.981   6.708
 7181SOL    HW221876   3.724   4.941   6.570
 7182SOL     OW21877   4.412   5.386   7.302
 7182SOL    HW121878   4.356   5.467   7.311
 7182SOL    HW221879   4.464   5.390   7.216
 7183SOL     OW21880   5.450   3.859   6.109
 7183SOL    HW121881   5.523   3.842   6.042
 7183SOL    HW221882   5.419   3.772   6.147
 7184SOL     OW21883   5.004   4.651   6.258
 7184SOL    HW121884   5.064   4.570   6.260
 7184SOL    HW221885   5.044   4.720   6.198
 7185SOL     OW21886   4.554   4.997   7.008
 7185SOL    HW121887   4.549   5.030   7.103
 7185SOL    HW221888   4.468   5.016   6.962
 7186SOL     OW21889   3.987   4.050   6.306
 7186SOL    HW121890   3.908   4.101   6.272
 7186SOL    HW221891   3.978   4.035   6.404
 7187SOL     OW21892   4.546   4.726   6.958
 7187SOL    HW121893   4.586   4.725   6.866
 7187SOL    HW221894   4.556   4.818   6.998
 7188SOL     OW21895   4.640   4.634   5.877
 7188SOL    HW121896   4.703   4.672   5.809
 7188SOL    HW221897   4.680   4.551   5.916
 7189SOL     OW21898   4.096   5.012   7.076
 7189SOL    HW121899   4.083   5.105   7.042
 7189SOL    HW221900   4.012   4.960   7.063
 7190SOL     OW21901   4.763   4.822   6.282
 7190SOL    HW121902   4.693   4.775   6.336
 7190SOL    HW221903   4.822   4.754   6.239
 7191SOL     OW21904   4.738   3.960   6.557
 7191SOL    HW121905   4.730   3.924   6.464
 7191SOL    HW221906   4.736   3.884   6.622
 7192SOL     OW21907   3.979   5.072   5.876
 7192SOL    HW121908   3.883   5.073   5.849
 7192SOL    HW221909   3.991   5.125   5.960
 7193SOL     OW21910   3.829   4.737   7.312
 7193SOL    HW121911   3.752   4.704   7.366
 7193SOL    HW221912   3.914   4.707   7.354
 7194SOL     OW21913   4.396   3.927   7.075
 7194SOL    HW121914   4.486   3.911   7.035
 7194SOL    HW221915   4.404   3.932   7.174
 7195SOL     OW21916   3.799   4.069   5.619
 7195SOL    HW121917   3.707   4.041   5.590
 7195SOL    HW221918   3.830   4.146   5.563
 7196SOL     OW21919   5.164   4.580   6.984
 7196SOL    HW121920   5.107   4.632   6.921
 7196SOL    HW221921   5.260   4.592   6.960
 7197SOL     OW21922   3.796   3.890   5.904
 7197SOL    HW121923   3.779   3.973   5.850
 7197SOL    HW221924   3.886   3.853   5.882
 7198SOL     OW21925   4.907   5.059   5.705
 7198SOL    HW121926   4.808   5.048   5.707
 7198SOL    HW221927   4.941   5.074   5.798
 7199SOL     OW21928   4.337   4.566   7.017
 7199SOL    HW121929   4.393   4.647   7.000
 7199SOL    HW221930   4.396   4.486   7.020
 7200SOL     OW21931   4.440   4.289   7.294
 7200SOL    HW121932   4.459   4.354   7.368
 7200SOL    HW221933   4.500   4.209   7.303
 7201SOL     OW21934   5.174   4.944   7.219
 7201SOL    HW121935   5.165   4.934   7.318
 7201SOL    HW221936   5.270   4.937   7.193
 7202SOL     OW21937   4.949   4.049   6.035
 7202SOL    HW121938   5.014   3.975   6.024
 7202SOL    HW221939   4.969   4.099   6.119
 7203SOL     OW21940   4.318   4.469   6.238
 7203SOL    HW121941   4.368   4.554   6.219
 7203SOL    HW221942   4.230   4.471   6.190
 7204SOL     OW21943   4.583   5.098   5.602
 7204SOL    HW121944   4.537   5.113   5.690
 7204SOL    HW221945   4.627   5.183   5.572
 7205SOL     OW21946   4.583   4.680   6.447
 7205SOL    HW121947   4.637   4.611   6.495
 7205SOL    HW221948   4.551   4.749   6.513
 7206SOL     OW21949   4.807   4.708   5.673
 7206SOL    HW121950   4.784   4.761   5.591
 7206SOL    HW221951   4.888   4.652   5.654
 7207SOL     OW21952   3.945   5.038   7.430
 7207SOL    HW121953   3.880   4.965   7.409
 7207SOL    HW221954   3.949   5.052   7.528
 7208SOL     OW21955   3.803   4.964   6.239
 7208SOL    HW121956   3.802   4.917   6.327
 7208SOL    HW221957   3.885   4.936   6.188
 7209SOL     OW21958   4.396   5.115   7.210
 7209SOL    HW121959   4.318   5.065   7.248
 7209SOL    HW221960   4.393   5.210   7.241
 7210SOL     OW21961   4.152   4.148   6.106
 7210SOL    HW121962   4.182   4.076   6.044
 7210SOL    HW221963   4.113   4.108   6.189
 7211SOL     OW21964   5.429   5.211   6.690
 7211SOL    HW121965   5.336   5.186   6.663
 7211SOL    HW221966   5.455   5.161   6.772
 7212SOL     OW21967   4.041   4.271   6.866
 7212SOL    HW121968   4.079   4.212   6.938
 7212SOL    HW221969   4.081   4.245   6.778
 7213SOL     OW21970   5.148   3.938   6.698
 7213SOL    HW121971   5.200   3.873   6.753
 7213SOL    HW221972   5.099   4.001   6.759
 7214SOL     OW21973   4.725   3.758   6.740
 7214SOL    HW121974   4.662   3.686   6.709
 7214SOL    HW221975   4.818   3.722   6.740
 7215SOL     OW21976   4.494   5.054   5.887
 7215SOL    HW121977   4.448   4.967   5.904
 7215SOL    HW221978   4.585   5.051   5.928
 7216SOL     OW21979   4.342   5.291   6.870
 7216SOL    HW121980   4.337   5.373   6.927
 7216SOL    HW221981   4.431   5.288   6.825
 7217SOL     OW21982   5.076   3.776   5.754
 7217SOL    HW121983   5.111   3.735   5.670
 7217SOL    HW221984   4.986   3.738   5.774
 7218SOL     OW21985   5.024   4.177   6.277
 7218SOL    HW121986   4.965   4.257   6.281
 7218SOL    HW221987   5.039   4.142   6.370
 7219SOL     OW21988   5.317   3.945   6.468
 7219SOL    HW121989   5.233   3.944   6.522
 7219SOL    HW221990   5.319   4.028   6.412
 7220SOL     OW21991   3.763   4.801   5.886
 7220SOL    HW121992   3.862   4.790   5.877
 7220SOL    HW221993   3.723   4.715   5.918
 7221SOL     OW21994   3.954   4.352   7.561
 7221SOL    HW121995   3.861   4.350   7.598
 7221SOL    HW221996   3.955   4.313   7.469
 7222SOL     OW21997   3.955   5.437   7.931
 7222SOL    HW121998   3.989   5.514   7.985
 7222SOL    HW221999   3.999   5.437   7.841
 7223SOL     OW22000   3.954   5.158   7.986
 7223SOL    HW122001   3.928   5.254   7.986
 7223SOL    HW222002   3.883   5.104   8.031
 7224SOL     OW22003   4.330   4.688   7.571
 7224SOL    HW122004   4.337   4.772   7.517
 7224SOL    HW222005   4.376   4.701   7.659
 7225SOL     OW22006   3.751   5.320   7.565
 7225SOL    HW122007   3.732   5.224   7.586
 7225SOL    HW222008   3.718   5.378   7.640
 7226SOL     OW22009   5.413   4.646   8.060
 7226SOL    HW122010   5.508   4.617   8.068
 7226SOL    HW222011   5.405   4.711   7.985
 7227SOL     OW22012   4.533   3.728   7.950
 7227SOL    HW122013   4.573   3.819   7.941
 7227SOL    HW222014   4.433   3.736   7.956
 7228SOL     OW22015   4.322   4.453   7.718
 7228SOL    HW122016   4.346   4.522   7.650
 7228SOL    HW222017   4.244   4.486   7.772
 7229SOL     OW22018   3.800   4.535   8.237
 7229SOL    HW122019   3.899   4.523   8.246
 7229SOL    HW222020   3.776   4.630   8.258
 7230SOL     OW22021   4.589   4.072   7.643
 7230SOL    HW122022   4.648   4.135   7.594
 7230SOL    HW222023   4.608   3.978   7.614
 7231SOL     OW22024   4.045   4.667   7.690
 7231SOL    HW122025   4.127   4.706   7.648
 7231SOL    HW222026   4.018   4.585   7.641
 7232SOL     OW22027   4.835   5.500   7.685
 7232SOL    HW122028   4.775   5.438   7.735
 7232SOL    HW222029   4.866   5.456   7.600
 7233SOL     OW22030   5.124   3.831   7.874
 7233SOL    HW122031   5.100   3.794   7.784
 7233SOL    HW222032   5.223   3.847   7.878
 7234SOL     OW22033   4.106   4.424   7.928
 7234SOL    HW122034   4.151   4.334   7.925
 7234SOL    HW222035   4.012   4.413   7.961
 7235SOL     OW22036   4.338   3.846   7.565
 7235SOL    HW122037   4.436   3.824   7.572
 7235SOL    HW222038   4.307   3.829   7.472
 7236SOL     OW22039   4.263   3.788   7.960
 7236SOL    HW122040   4.182   3.789   8.018
 7236SOL    HW222041   4.266   3.871   7.905
 7237SOL     OW22042   5.158   4.912   7.489
 7237SOL    HW122043   5.190   4.836   7.546
 7237SOL    HW222044   5.066   4.939   7.519
 7238SOL     OW22045   4.021   3.759   7.619
 7238SOL    HW122046   4.070   3.843   7.598
 7238SOL    HW222047   4.083   3.694   7.664
 7239SOL     OW22048   4.659   3.960   7.928
 7239SOL    HW122049   4.611   4.001   7.850
 7239SOL    HW222050   4.758   3.958   7.909
 7240SOL     OW22051   4.183   4.876   8.189
 7240SOL    HW122052   4.112   4.849   8.254
 7240SOL    HW222053   4.157   4.848   8.096
 7241SOL     OW22054   4.756   4.273   7.464
 7241SOL    HW122055   4.715   4.355   7.425
 7241SOL    HW222056   4.820   4.299   7.537
 7242SOL     OW22057   4.212   5.109   7.622
 7242SOL    HW122058   4.125   5.094   7.669
 7242SOL    HW222059   4.195   5.135   7.527
 7243SOL     OW22060   5.114   4.299   7.526
 7243SOL    HW122061   5.060   4.278   7.607
 7243SOL    HW222062   5.205   4.258   7.535
 7244SOL     OW22063   4.251   3.980   7.776
 7244SOL    HW122064   4.278   3.921   7.701
 7244SOL    HW222065   4.251   4.075   7.745
 7245SOL     OW22066   4.429   4.774   7.816
 7245SOL    HW122067   4.415   4.781   7.915
 7245SOL    HW222068   4.513   4.723   7.798
 7246SOL     OW22069   4.091   4.824   7.949
 7246SOL    HW122070   4.084   4.907   7.893
 7246SOL    HW222071   4.095   4.744   7.889
 7247SOL     OW22072   4.976   5.072   7.836
 7247SOL    HW122073   5.026   5.149   7.876
 7247SOL    HW222074   4.881   5.074   7.868
 7248SOL     OW22075   5.306   4.363   7.920
 7248SOL    HW122076   5.275   4.424   7.993
 7248SOL    HW222077   5.356   4.415   7.851
 7249SOL     OW22078   4.933   4.249   7.723
 7249SOL    HW122079   4.946   4.165   7.777
 7249SOL    HW222080   4.904   4.323   7.783
 7250SOL     OW22081   5.346   4.091   7.822
 7250SOL    HW122082   5.348   4.015   7.886
 7250SOL    HW222083   5.298   4.168   7.862
 7251SOL     OW22084   5.027   4.562   7.490
 7251SOL    HW122085   5.061   4.469   7.505
 7251SOL    HW222086   5.045   4.589   7.395
 7252SOL     OW22087   3.732   5.050   7.648
 7252SOL    HW122088   3.639   5.071   7.617
 7252SOL    HW222089   3.742   4.951   7.661
 7253SOL     OW22090   4.539   4.296   7.773
 7253SOL    HW122091   4.546   4.207   7.727
 7253SOL    HW222092   4.445   4.330   7.765
 7254SOL     OW22093   4.197   4.224   7.639
 7254SOL    HW122094   4.258   4.304   7.643
 7254SOL    HW222095   4.102   4.255   7.646
 7255SOL     OW22096   5.026   4.579   7.757
 7255SOL    HW122097   4.940   4.548   7.799
 7255SOL    HW222098   5.022   4.565   7.658
 7256SOL     OW22099   5.450   3.859   7.971
 7256SOL    HW122100   5.523   3.842   7.904
 7256SOL    HW222101   5.419   3.772   8.009
 7257SOL     OW22102   4.640   4.634   7.739
 7257SOL    HW122103   4.703   4.672   7.671
 7257SOL    HW222104   4.680   4.551   7.778
 7258SOL     OW22105   3.979   5.072   7.738
 7258SOL    HW122106   3.883   5.073   7.711
 7258SOL    HW222107   3.991   5.125   7.822
 7259SOL     OW22108   3.799   4.069   7.481
 7259SOL    HW122109   3.707   4.041   7.452
 7259SOL    HW222110   3.830   4.146   7.425
 7260SOL     OW22111   3.796   3.890   7.766
 7260SOL    HW122112   3.779   3.973   7.712
 7260SOL    HW222113   3.886   3.853   7.744
 7261SOL     OW22114   4.907   5.059   7.567
 7261SOL    HW122115   4.808   5.048   7.569
 7261SOL    HW222116   4.941   5.074   7.660
 7262SOL     OW22117   4.949   4.049   7.897
 7262SOL    HW122118   5.014   3.975   7.886
 7262SOL    HW222119   4.969   4.099   7.981
 7263SOL     OW22120   4.318   4.469   8.100
 7263SOL    HW122121   4.368   4.554   8.081
 7263SOL    HW222122   4.230   4.471   8.052
 7264SOL     OW22123   4.583   5.098   7.464
 7264SOL    HW122124   4.537   5.113   7.552
 7264SOL    HW222125   4.627   5.183   7.434
 7265SOL     OW22126   4.807   4.708   7.535
 7265SOL    HW122127   4.784   4.761   7.453
 7265SOL    HW222128   4.888   4.652   7.516
 7266SOL     OW22129   4.152   4.148   7.968
 7266SOL    HW122130   4.182   4.076   7.906
 7266SOL    HW222131   4.113   4.108   8.051
 7267SOL     OW22132   4.494   5.054   7.749
 7267SOL    HW122133   4.448   4.967   7.766
 7267SOL    HW222134   4.585   5.051   7.790
 7268SOL     OW22135   5.076   3.776   7.616
 7268SOL    HW122136   5.111   3.735   7.532
 7268SOL    HW222137   4.986   3.738   7.636
 7269SOL     OW22138   3.763   4.801   7.748
 7269SOL    HW122139   3.862   4.790   7.739
 7269SOL    HW222140   3.723   4.715   7.780
   5.30000   5.30000   8.08000
