Built with Packmol
22227
    1LIG      O    1   2.627   2.770   0.038
    1LIG      C    2   2.692   2.820   0.126
    1LIG     C1    3   2.621   2.767   0.219
    1LIG     O1    4   2.685   2.817   0.308
    1LIG     C2    5   2.620   2.768   0.396
    1LIG     C3    6   2.691   2.823   0.487
    1LIG     O2    7   2.627   2.775   0.575
    1LIG     C4    8   2.690   2.825   0.664
    1LIG     C5    9   2.618   2.770   0.756
    1LIG     O3   10   2.681   2.820   0.844
    1LIG     C6   11   2.616   2.771   0.932
    1LIG     C7   12   2.688   2.827   1.023
    1LIG     O4   13   2.624   2.779   1.112
    1LIG     C8   14   2.688   2.829   1.200
    1LIG     C9   15   2.615   2.773   1.291
    1LIG     O5   16   2.679   2.823   1.379
    1LIG    C10   17   2.615   2.774   1.468
    1LIG    C11   18   2.687   2.830   1.559
    1LIG     O6   19   2.623   2.781   1.647
    1LIG    C12   20   2.686   2.830   1.735
    1LIG    C13   21   2.613   2.775   1.827
    1LIG     O7   22   2.677   2.824   1.915
    1LIG    C14   23   2.613   2.775   2.003
    1LIG    C15   24   2.685   2.830   2.095
    1LIG     O8   25   2.621   2.781   2.184
    1LIG    C16   26   2.685   2.831   2.272
    1LIG    C17   27   2.614   2.776   2.363
    1LIG     O9   28   2.677   2.825   2.452
    1LIG    C18   29   2.612   2.776   2.540
    1LIG    C19   30   2.684   2.831   2.631
    1LIG    O10   31   2.621   2.782   2.720
    1LIG    C20   32   2.685   2.832   2.807
    1LIG    C21   33   2.612   2.776   2.899
    1LIG    O11   34   2.676   2.825   2.987
    1LIG    C22   35   2.612   2.776   3.075
    1LIG    C23   36   2.684   2.832   3.166
    1LIG    O12   37   2.620   2.783   3.254
    1LIG    C24   38   2.684   2.832   3.343
    1LIG    C25   39   2.612   2.777   3.435
    1LIG    O13   40   2.675   2.826   3.524
    1LIG    C26   41   2.611   2.777   3.611
    1LIG    C27   42   2.683   2.832   3.703
    1LIG    O14   43   2.619   2.783   3.791
    1LIG    C28   44   2.684   2.832   3.879
    1LIG    C29   45   2.612   2.776   3.971
    1LIG    O15   46   2.676   2.825   4.059
    1LIG    C30   47   2.612   2.776   4.147
    1LIG    C31   48   2.684   2.831   4.238
    1LIG    O16   49   2.620   2.782   4.326
    1LIG    C32   50   2.684   2.831   4.415
    1LIG    C33   51   2.612   2.776   4.506
    1LIG    O17   52   2.676   2.825   4.595
    1LIG    C34   53   2.612   2.775   4.683
    1LIG    C35   54   2.684   2.830   4.774
    1LIG    O18   55   2.620   2.781   4.863
    1LIG    C36   56   2.684   2.830   4.951
    1LIG    C37   57   2.613   2.775   5.042
    1LIG    O19   58   2.677   2.824   5.131
    1LIG    C38   59   2.613   2.774   5.219
    1LIG    C39   60   2.684   2.829   5.311
    1LIG    O20   61   2.621   2.780   5.399
    1LIG    C40   62   2.685   2.829   5.487
    1LIG    C41   63   2.614   2.774   5.579
    1LIG    O21   64   2.677   2.823   5.667
    1LIG    C42   65   2.613   2.773   5.755
    1LIG    C43   66   2.685   2.828   5.846
    1LIG    O22   67   2.622   2.779   5.935
    1LIG    C44   68   2.686   2.828   6.023
    1LIG    C45   69   2.614   2.772   6.114
    1LIG    O23   70   2.678   2.821   6.202
    1LIG    C46   71   2.614   2.772   6.291
    1LIG    C47   72   2.687   2.828   6.382
    1LIG    O24   73   2.623   2.778   6.470
    1LIG    C48   74   2.686   2.827   6.558
    1LIG    C49   75   2.614   2.771   6.650
    1LIG    O25   76   2.678   2.820   6.738
    1LIG    C50   77   2.615   2.771   6.826
    1LIG    C51   78   2.687   2.827   6.917
    1LIG    O26   79   2.624   2.777   7.005
    1LIG    C52   80   2.687   2.826   7.094
    1LIG    C53   81   2.615   2.769   7.185
    1LIG    O27   82   2.679   2.819   7.273
    1LIG    C54   83   2.616   2.769   7.362
    1LIG    C55   84   2.688   2.825   7.454
    1LIG    O28   85   2.624   2.775   7.542
    1LIG    C56   86   2.688   2.824   7.630
    1LIG    C57   87   2.617   2.768   7.723
    1LIG    O29   88   2.681   2.817   7.811
    1LIG    C58   89   2.617   2.767   7.899
    1LIG    C59   90   2.688   2.822   7.991
    1LIG      H   91   2.689   2.930   0.125
    1LIG     H1   92   2.797   2.789   0.125
    1LIG     H2   93   2.624   2.658   0.219
    1LIG     H3   94   2.516   2.798   0.218
    1LIG     H4   95   2.623   2.658   0.397
    1LIG     H5   96   2.515   2.799   0.396
    1LIG     H6   97   2.689   2.933   0.486
    1LIG     H7   98   2.797   2.792   0.487
    1LIG     H8   99   2.688   2.934   0.664
    1LIG     H9  100   2.795   2.794   0.665
    1LIG    H10  101   2.621   2.661   0.755
    1LIG    H11  102   2.513   2.801   0.754
    1LIG    H12  103   2.619   2.662   0.933
    1LIG    H13  104   2.511   2.802   0.933
    1LIG    H14  105   2.685   2.937   1.022
    1LIG    H15  106   2.793   2.796   1.023
    1LIG    H16  107   2.685   2.938   1.201
    1LIG    H17  108   2.793   2.798   1.202
    1LIG    H18  109   2.618   2.664   1.290
    1LIG    H19  110   2.510   2.804   1.290
    1LIG    H20  111   2.617   2.664   1.469
    1LIG    H21  112   2.509   2.805   1.469
    1LIG    H22  113   2.684   2.939   1.558
    1LIG    H23  114   2.792   2.799   1.558
    1LIG    H24  115   2.683   2.939   1.736
    1LIG    H25  116   2.791   2.799   1.737
    1LIG    H26  117   2.616   2.665   1.826
    1LIG    H27  118   2.508   2.806   1.825
    1LIG    H28  119   2.616   2.665   2.004
    1LIG    H29  120   2.508   2.806   2.004
    1LIG    H30  121   2.682   2.940   2.094
    1LIG    H31  122   2.790   2.799   2.094
    1LIG    H32  123   2.682   2.941   2.272
    1LIG    H33  124   2.790   2.800   2.273
    1LIG    H34  125   2.616   2.667   2.362
    1LIG    H35  126   2.508   2.807   2.362
    1LIG    H36  127   2.615   2.666   2.541
    1LIG    H37  128   2.507   2.807   2.541
    1LIG    H38  129   2.681   2.941   2.630
    1LIG    H39  130   2.789   2.800   2.630
    1LIG    H40  131   2.682   2.941   2.809
    1LIG    H41  132   2.790   2.801   2.809
    1LIG    H42  133   2.615   2.667   2.897
    1LIG    H43  134   2.507   2.807   2.897
    1LIG    H44  135   2.615   2.667   3.076
    1LIG    H45  136   2.507   2.807   3.076
    1LIG    H46  137   2.681   2.942   3.165
    1LIG    H47  138   2.790   2.801   3.165
    1LIG    H48  139   2.681   2.941   3.344
    1LIG    H49  140   2.789   2.801   3.344
    1LIG    H50  141   2.615   2.667   3.434
    1LIG    H51  142   2.507   2.808   3.434
    1LIG    H52  143   2.614   2.667   3.612
    1LIG    H53  144   2.506   2.808   3.612
    1LIG    H54  145   2.680   2.942   3.702
    1LIG    H55  146   2.788   2.801   3.701
    1LIG    H56  147   2.681   2.941   3.880
    1LIG    H57  148   2.789   2.801   3.880
    1LIG    H58  149   2.615   2.667   3.970
    1LIG    H59  150   2.507   2.807   3.970
    1LIG    H60  151   2.615   2.666   4.148
    1LIG    H61  152   2.507   2.807   4.148
    1LIG    H62  153   2.681   2.941   4.237
    1LIG    H63  154   2.789   2.800   4.237
    1LIG    H64  155   2.681   2.940   4.416
    1LIG    H65  156   2.789   2.800   4.416
    1LIG    H66  157   2.615   2.666   4.505
    1LIG    H67  158   2.507   2.807   4.505
    1LIG    H68  159   2.615   2.666   4.683
    1LIG    H69  160   2.507   2.806   4.683
    1LIG    H70  161   2.681   2.940   4.773
    1LIG    H71  162   2.789   2.800   4.773
    1LIG    H72  163   2.681   2.940   4.952
    1LIG    H73  164   2.790   2.800   4.951
    1LIG    H74  165   2.616   2.666   5.041
    1LIG    H75  166   2.508   2.806   5.042
    1LIG    H76  167   2.616   2.665   5.219
    1LIG    H77  168   2.508   2.805   5.220
    1LIG    H78  169   2.681   2.938   5.310
    1LIG    H79  170   2.790   2.798   5.309
    1LIG    H80  171   2.682   2.939   5.488
    1LIG    H81  172   2.790   2.799   5.488
    1LIG    H82  173   2.617   2.664   5.577
    1LIG    H83  174   2.508   2.804   5.578
    1LIG    H84  175   2.617   2.663   5.756
    1LIG    H85  176   2.508   2.803   5.756
    1LIG    H86  177   2.682   2.938   5.845
    1LIG    H87  178   2.791   2.798   5.845
    1LIG    H88  179   2.683   2.938   6.024
    1LIG    H89  180   2.791   2.798   6.024
    1LIG    H90  181   2.617   2.663   6.113
    1LIG    H91  182   2.509   2.803   6.113
    1LIG    H92  183   2.618   2.662   6.292
    1LIG    H93  184   2.509   2.802   6.292
    1LIG    H94  185   2.683   2.937   6.381
    1LIG    H95  186   2.792   2.797   6.381
    1LIG    H96  187   2.683   2.936   6.560
    1LIG    H97  188   2.791   2.796   6.560
    1LIG    H98  189   2.618   2.661   6.648
    1LIG    H99  190   2.509   2.801   6.649
    1LIG   H100  191   2.618   2.661   6.827
    1LIG   H101  192   2.510   2.801   6.828
    1LIG   H102  193   2.684   2.936   6.916
    1LIG   H103  194   2.792   2.796   6.916
    1LIG   H104  195   2.684   2.935   7.095
    1LIG   H105  196   2.792   2.795   7.095
    1LIG   H106  197   2.619   2.660   7.184
    1LIG   H107  198   2.510   2.800   7.184
    1LIG   H108  199   2.620   2.660   7.363
    1LIG   H109  200   2.511   2.800   7.363
    1LIG   H110  201   2.684   2.934   7.453
    1LIG   H111  202   2.793   2.794   7.452
    1LIG   H112  203   2.685   2.934   7.631
    1LIG   H113  204   2.794   2.794   7.631
    1LIG   H114  205   2.621   2.659   7.721
    1LIG   H115  206   2.512   2.799   7.722
    1LIG   H116  207   2.621   2.657   7.899
    1LIG   H117  208   2.512   2.799   7.900
    1LIG   H118  209   2.793   2.792   7.991
    1LIG   H119  210   2.641   2.785   8.060
    1LIG      O  211   2.627   2.470   0.038
    1LIG      C  212   2.692   2.520   0.126
    1LIG     C1  213   2.621   2.467   0.219
    1LIG     O1  214   2.685   2.517   0.308
    1LIG     C2  215   2.620   2.468   0.396
    1LIG     C3  216   2.691   2.523   0.487
    1LIG     O2  217   2.627   2.475   0.575
    1LIG     C4  218   2.690   2.525   0.664
    1LIG     C5  219   2.618   2.470   0.756
    1LIG     O3  220   2.681   2.520   0.844
    1LIG     C6  221   2.616   2.471   0.932
    1LIG     C7  222   2.688   2.527   1.023
    1LIG     O4  223   2.624   2.479   1.112
    1LIG     C8  224   2.688   2.529   1.200
    1LIG     C9  225   2.615   2.473   1.291
    1LIG     O5  226   2.679   2.523   1.379
    1LIG    C10  227   2.615   2.474   1.468
    1LIG    C11  228   2.687   2.530   1.559
    1LIG     O6  229   2.623   2.481   1.647
    1LIG    C12  230   2.686   2.530   1.735
    1LIG    C13  231   2.613   2.475   1.827
    1LIG     O7  232   2.677   2.524   1.915
    1LIG    C14  233   2.613   2.475   2.003
    1LIG    C15  234   2.685   2.530   2.095
    1LIG     O8  235   2.621   2.481   2.184
    1LIG    C16  236   2.685   2.531   2.272
    1LIG    C17  237   2.614   2.476   2.363
    1LIG     O9  238   2.677   2.525   2.452
    1LIG    C18  239   2.612   2.476   2.540
    1LIG    C19  240   2.684   2.531   2.631
    1LIG    O10  241   2.621   2.482   2.720
    1LIG    C20  242   2.685   2.532   2.807
    1LIG    C21  243   2.612   2.476   2.899
    1LIG    O11  244   2.676   2.525   2.987
    1LIG    C22  245   2.612   2.476   3.075
    1LIG    C23  246   2.684   2.532   3.166
    1LIG    O12  247   2.620   2.483   3.254
    1LIG    C24  248   2.684   2.532   3.343
    1LIG    C25  249   2.612   2.477   3.435
    1LIG    O13  250   2.675   2.526   3.524
    1LIG    C26  251   2.611   2.477   3.611
    1LIG    C27  252   2.683   2.532   3.703
    1LIG    O14  253   2.619   2.483   3.791
    1LIG    C28  254   2.684   2.532   3.879
    1LIG    C29  255   2.612   2.476   3.971
    1LIG    O15  256   2.676   2.525   4.059
    1LIG    C30  257   2.612   2.476   4.147
    1LIG    C31  258   2.684   2.531   4.238
    1LIG    O16  259   2.620   2.482   4.326
    1LIG    C32  260   2.684   2.531   4.415
    1LIG    C33  261   2.612   2.476   4.506
    1LIG    O17  262   2.676   2.525   4.595
    1LIG    C34  263   2.612   2.475   4.683
    1LIG    C35  264   2.684   2.530   4.774
    1LIG    O18  265   2.620   2.481   4.863
    1LIG    C36  266   2.684   2.530   4.951
    1LIG    C37  267   2.613   2.475   5.042
    1LIG    O19  268   2.677   2.524   5.131
    1LIG    C38  269   2.613   2.474   5.219
    1LIG    C39  270   2.684   2.529   5.311
    1LIG    O20  271   2.621   2.480   5.399
    1LIG    C40  272   2.685   2.529   5.487
    1LIG    C41  273   2.614   2.474   5.579
    1LIG    O21  274   2.677   2.523   5.667
    1LIG    C42  275   2.613   2.473   5.755
    1LIG    C43  276   2.685   2.528   5.846
    1LIG    O22  277   2.622   2.479   5.935
    1LIG    C44  278   2.686   2.528   6.023
    1LIG    C45  279   2.614   2.472   6.114
    1LIG    O23  280   2.678   2.521   6.202
    1LIG    C46  281   2.614   2.472   6.291
    1LIG    C47  282   2.687   2.528   6.382
    1LIG    O24  283   2.623   2.478   6.470
    1LIG    C48  284   2.686   2.527   6.558
    1LIG    C49  285   2.614   2.471   6.650
    1LIG    O25  286   2.678   2.520   6.738
    1LIG    C50  287   2.615   2.471   6.826
    1LIG    C51  288   2.687   2.527   6.917
    1LIG    O26  289   2.624   2.477   7.005
    1LIG    C52  290   2.687   2.526   7.094
    1LIG    C53  291   2.615   2.469   7.185
    1LIG    O27  292   2.679   2.519   7.273
    1LIG    C54  293   2.616   2.469   7.362
    1LIG    C55  294   2.688   2.525   7.454
    1LIG    O28  295   2.624   2.475   7.542
    1LIG    C56  296   2.688   2.524   7.630
    1LIG    C57  297   2.617   2.468   7.723
    1LIG    O29  298   2.681   2.517   7.811
    1LIG    C58  299   2.617   2.467   7.899
    1LIG    C59  300   2.688   2.522   7.991
    1LIG      H  301   2.689   2.630   0.125
    1LIG     H1  302   2.797   2.489   0.125
    1LIG     H2  303   2.624   2.358   0.219
    1LIG     H3  304   2.516   2.498   0.218
    1LIG     H4  305   2.623   2.358   0.397
    1LIG     H5  306   2.515   2.499   0.396
    1LIG     H6  307   2.689   2.633   0.486
    1LIG     H7  308   2.797   2.492   0.487
    1LIG     H8  309   2.688   2.634   0.664
    1LIG     H9  310   2.795   2.494   0.665
    1LIG    H10  311   2.621   2.361   0.755
    1LIG    H11  312   2.513   2.501   0.754
    1LIG    H12  313   2.619   2.362   0.933
    1LIG    H13  314   2.511   2.502   0.933
    1LIG    H14  315   2.685   2.637   1.022
    1LIG    H15  316   2.793   2.496   1.023
    1LIG    H16  317   2.685   2.638   1.201
    1LIG    H17  318   2.793   2.498   1.202
    1LIG    H18  319   2.618   2.364   1.290
    1LIG    H19  320   2.510   2.504   1.290
    1LIG    H20  321   2.617   2.364   1.469
    1LIG    H21  322   2.509   2.505   1.469
    1LIG    H22  323   2.684   2.639   1.558
    1LIG    H23  324   2.792   2.499   1.558
    1LIG    H24  325   2.683   2.639   1.736
    1LIG    H25  326   2.791   2.499   1.737
    1LIG    H26  327   2.616   2.365   1.826
    1LIG    H27  328   2.508   2.506   1.825
    1LIG    H28  329   2.616   2.365   2.004
    1LIG    H29  330   2.508   2.506   2.004
    1LIG    H30  331   2.682   2.640   2.094
    1LIG    H31  332   2.790   2.499   2.094
    1LIG    H32  333   2.682   2.641   2.272
    1LIG    H33  334   2.790   2.500   2.273
    1LIG    H34  335   2.616   2.367   2.362
    1LIG    H35  336   2.508   2.507   2.362
    1LIG    H36  337   2.615   2.366   2.541
    1LIG    H37  338   2.507   2.507   2.541
    1LIG    H38  339   2.681   2.641   2.630
    1LIG    H39  340   2.789   2.500   2.630
    1LIG    H40  341   2.682   2.641   2.809
    1LIG    H41  342   2.790   2.501   2.809
    1LIG    H42  343   2.615   2.367   2.897
    1LIG    H43  344   2.507   2.507   2.897
    1LIG    H44  345   2.615   2.367   3.076
    1LIG    H45  346   2.507   2.507   3.076
    1LIG    H46  347   2.681   2.642   3.165
    1LIG    H47  348   2.790   2.501   3.165
    1LIG    H48  349   2.681   2.641   3.344
    1LIG    H49  350   2.789   2.501   3.344
    1LIG    H50  351   2.615   2.367   3.434
    1LIG    H51  352   2.507   2.508   3.434
    1LIG    H52  353   2.614   2.367   3.612
    1LIG    H53  354   2.506   2.508   3.612
    1LIG    H54  355   2.680   2.642   3.702
    1LIG    H55  356   2.788   2.501   3.701
    1LIG    H56  357   2.681   2.641   3.880
    1LIG    H57  358   2.789   2.501   3.880
    1LIG    H58  359   2.615   2.367   3.970
    1LIG    H59  360   2.507   2.507   3.970
    1LIG    H60  361   2.615   2.366   4.148
    1LIG    H61  362   2.507   2.507   4.148
    1LIG    H62  363   2.681   2.641   4.237
    1LIG    H63  364   2.789   2.500   4.237
    1LIG    H64  365   2.681   2.640   4.416
    1LIG    H65  366   2.789   2.500   4.416
    1LIG    H66  367   2.615   2.366   4.505
    1LIG    H67  368   2.507   2.507   4.505
    1LIG    H68  369   2.615   2.366   4.683
    1LIG    H69  370   2.507   2.506   4.683
    1LIG    H70  371   2.681   2.640   4.773
    1LIG    H71  372   2.789   2.500   4.773
    1LIG    H72  373   2.681   2.640   4.952
    1LIG    H73  374   2.790   2.500   4.951
    1LIG    H74  375   2.616   2.366   5.041
    1LIG    H75  376   2.508   2.506   5.042
    1LIG    H76  377   2.616   2.365   5.219
    1LIG    H77  378   2.508   2.505   5.220
    1LIG    H78  379   2.681   2.638   5.310
    1LIG    H79  380   2.790   2.498   5.309
    1LIG    H80  381   2.682   2.639   5.488
    1LIG    H81  382   2.790   2.499   5.488
    1LIG    H82  383   2.617   2.364   5.577
    1LIG    H83  384   2.508   2.504   5.578
    1LIG    H84  385   2.617   2.363   5.756
    1LIG    H85  386   2.508   2.503   5.756
    1LIG    H86  387   2.682   2.638   5.845
    1LIG    H87  388   2.791   2.498   5.845
    1LIG    H88  389   2.683   2.638   6.024
    1LIG    H89  390   2.791   2.498   6.024
    1LIG    H90  391   2.617   2.363   6.113
    1LIG    H91  392   2.509   2.503   6.113
    1LIG    H92  393   2.618   2.362   6.292
    1LIG    H93  394   2.509   2.502   6.292
    1LIG    H94  395   2.683   2.637   6.381
    1LIG    H95  396   2.792   2.497   6.381
    1LIG    H96  397   2.683   2.636   6.560
    1LIG    H97  398   2.791   2.496   6.560
    1LIG    H98  399   2.618   2.361   6.648
    1LIG    H99  400   2.509   2.501   6.649
    1LIG   H100  401   2.618   2.361   6.827
    1LIG   H101  402   2.510   2.501   6.828
    1LIG   H102  403   2.684   2.636   6.916
    1LIG   H103  404   2.792   2.496   6.916
    1LIG   H104  405   2.684   2.635   7.095
    1LIG   H105  406   2.792   2.495   7.095
    1LIG   H106  407   2.619   2.360   7.184
    1LIG   H107  408   2.510   2.500   7.184
    1LIG   H108  409   2.620   2.360   7.363
    1LIG   H109  410   2.511   2.500   7.363
    1LIG   H110  411   2.684   2.634   7.453
    1LIG   H111  412   2.793   2.494   7.452
    1LIG   H112  413   2.685   2.634   7.631
    1LIG   H113  414   2.794   2.494   7.631
    1LIG   H114  415   2.621   2.359   7.721
    1LIG   H115  416   2.512   2.499   7.722
    1LIG   H116  417   2.621   2.357   7.899
    1LIG   H117  418   2.512   2.499   7.900
    1LIG   H118  419   2.793   2.492   7.991
    1LIG   H119  420   2.641   2.485   8.060
    1MOL     C1  421   2.129   2.197   3.936
    1MOL     H1  422   2.107   2.090   3.926
    1MOL     O1  423   2.083   2.230   4.066
    1MOL     C2  424   2.103   2.368   4.102
    1MOL     H2  425   2.209   2.395   4.088
    1MOL     C3  426   2.072   2.381   4.250
    1MOL     H3  427   2.105   2.480   4.285
    1MOL     H4  428   2.128   2.304   4.305
    1MOL     O2  429   1.932   2.366   4.272
    1MOL     C4  430   1.897   2.383   4.408
    1MOL     C5  431   2.047   2.278   3.833
    1MOL     H5  432   1.944   2.242   3.841
    1MOL     O3  433   2.093   2.263   3.700
    1MOL     C6  434   2.063   2.139   3.640
    1MOL     C7  435   2.046   2.429   3.863
    1MOL     H6  436   2.144   2.471   3.839
    1MOL     O4  437   1.944   2.489   3.785
    1MOL     C8  438   1.991   2.580   3.687
    1MOL     C9  439   2.016   2.457   4.011
    1MOL     H7  440   1.911   2.433   4.030
    1MOL     O5  441   2.041   2.596   4.033
    1MOL    C10  442   1.955   2.665   4.122
    1MOL     H8  443   1.877   2.598   4.157
    1MOL     O6  444   2.024   2.705   4.239
    1MOL    C11  445   2.135   2.793   4.215
    1MOL     H9  446   2.205   2.745   4.145
    1MOL    C12  447   2.208   2.812   4.347
    1MOL    H10  448   2.304   2.860   4.328
    1MOL    H11  449   2.226   2.713   4.392
    1MOL     O7  450   2.130   2.892   4.434
    1MOL    C13  451   2.196   2.920   4.555
    1MOL    C14  452   1.895   2.789   4.053
    1MOL    H12  453   1.820   2.830   4.122
    1MOL     O8  454   1.835   2.761   3.928
    1MOL    C15  455   1.711   2.694   3.935
    1MOL    C16  456   1.999   2.899   4.028
    1MOL    H13  457   2.065   2.866   3.947
    1MOL     O9  458   1.933   3.019   3.994
    1MOL    C17  459   1.947   3.059   3.859
    1MOL    C18  460   2.085   2.925   4.152
    1MOL    H14  461   2.024   2.977   4.226
    1MOL    O10  462   2.194   3.007   4.111
    1MOL    C19  463   2.235   3.112   4.196
    1MOL    H15  464   2.168   3.119   4.282
    1MOL    O11  465   2.363   3.086   4.253
    1MOL    C20  466   2.468   3.072   4.158
    1MOL    H16  467   2.442   2.993   4.085
    1MOL    C21  468   2.591   3.023   4.233
    1MOL    H17  469   2.667   2.991   4.160
    1MOL    H18  470   2.562   2.936   4.293
    1MOL    O12  471   2.641   3.126   4.317
    1MOL    C22  472   2.742   3.080   4.404
    1MOL    C23  473   2.241   3.245   4.118
    1MOL    H19  474   2.263   3.324   4.192
    1MOL    O13  475   2.122   3.275   4.049
    1MOL    C24  476   2.014   3.316   4.132
    1MOL    C25  477   2.355   3.245   4.016
    1MOL    H20  478   2.332   3.173   3.936
    1MOL    O14  479   2.369   3.376   3.961
    1MOL    C26  480   2.313   3.392   3.831
    1MOL    C27  481   2.488   3.204   4.081
    1MOL    H21  482   2.522   3.281   4.151
    1MOL    O15  483   2.588   3.180   3.981
    1MOL    C28  484   2.660   3.294   3.938
    1MOL    H22  485   2.594   3.380   3.934
    1MOL    O16  486   2.763   3.331   4.028
    1MOL    C29  487   2.863   3.231   4.051
    1MOL    H23  488   2.817   3.141   4.094
    1MOL    C30  489   2.957   3.289   4.156
    1MOL    H24  490   3.021   3.209   4.197
    1MOL    H25  491   2.895   3.330   4.237
    1MOL    O17  492   3.038   3.390   4.098
    1MOL    C31  493   3.122   3.452   4.193
    1MOL    C32  494   2.720   3.264   3.800
    1MOL    H26  495   2.769   3.356   3.766
    1MOL    O18  496   2.616   3.227   3.711
    1MOL    C33  497   2.630   3.279   3.580
    1MOL    C34  498   2.828   3.155   3.811
    1MOL    H27  499   2.779   3.061   3.839
    1MOL    O19  500   2.891   3.142   3.684
    1MOL    C35  501   2.906   3.008   3.638
    1MOL    C36  502   2.932   3.192   3.918
    1MOL    H28  503   2.989   3.278   3.881
    1MOL    O20  504   3.019   3.079   3.934
    1MOL    C37  505   3.153   3.105   3.969
    1MOL    H29  506   3.171   3.213   3.971
    1MOL    O21  507   3.182   3.062   4.101
    1MOL    C38  508   3.165   2.921   4.122
    1MOL    H30  509   3.063   2.893   4.093
    1MOL    C39  510   3.178   2.896   4.272
    1MOL    H31  511   3.145   2.794   4.294
    1MOL    H32  512   3.113   2.967   4.326
    1MOL    O22  513   3.313   2.913   4.311
    1MOL    C40  514   3.334   2.880   4.447
    1MOL    C41  515   3.250   3.035   3.871
    1MOL    H33  516   3.351   3.073   3.894
    1MOL    O23  517   3.219   3.060   3.735
    1MOL    C42  518   3.251   3.190   3.688
    1MOL    C43  519   3.254   2.883   3.889
    1MOL    H34  520   3.161   2.840   3.849
    1MOL    O24  521   3.366   2.832   3.819
    1MOL    C44  522   3.335   2.752   3.706
    1MOL    C45  523   3.266   2.844   4.036
    1MOL    H35  524   3.367   2.869   4.071
    1MOL    O25  525   3.245   2.702   4.044
    1MOL    C46  526   3.327   2.629   4.134
    1MOL    H36  527   3.402   2.695   4.178
    1MOL    O26  528   3.253   2.580   4.244
    1MOL    C47  529   3.147   2.490   4.211
    1MOL    H37  530   3.078   2.538   4.140
    1MOL    C48  531   3.069   2.461   4.339
    1MOL    H38  532   2.974   2.413   4.314
    1MOL    H39  533   3.047   2.558   4.388
    1MOL    O27  534   3.146   2.379   4.424
    1MOL    C49  535   3.073   2.339   4.539
    1MOL    C50  536   3.393   2.510   4.061
    1MOL    H40  537   3.466   2.467   4.131
    1MOL    O28  538   3.459   2.547   3.941
    1MOL    C51  539   3.581   2.617   3.959
    1MOL    C52  540   3.293   2.400   4.025
    1MOL    H41  541   3.228   2.436   3.944
    1MOL    O29  542   3.364   2.284   3.984
    1MOL    C53  543   3.359   2.258   3.845
    1MOL    C54  544   3.206   2.364   4.145
    1MOL    H42  545   3.268   2.313   4.220
    1MOL    O30  546   3.103   2.275   4.100
    1MOL    C55  547   3.079   2.158   4.174
    1MOL    H43  548   3.159   2.143   4.247
    1MOL    O31  549   2.961   2.165   4.251
    1MOL    C56  550   2.839   2.184   4.177
    1MOL    H44  551   2.843   2.279   4.122
    1MOL    C57  552   2.728   2.189   4.280
    1MOL    H45  553   2.743   2.107   4.353
    1MOL    H46  554   2.631   2.173   4.232
    1MOL    O32  555   2.731   2.315   4.346
    1MOL    C58  556   2.630   2.326   4.444
    1MOL    C59  557   3.069   2.036   4.079
    1MOL    H47  558   3.058   1.947   4.144
    1MOL    O33  559   3.181   2.019   3.995
    1MOL    C60  560   3.298   1.972   4.060
    1MOL    C61  561   2.944   2.044   3.991
    1MOL    H48  562   2.955   2.128   3.921
    1MOL    O34  563   2.924   1.922   3.921
    1MOL    C62  564   2.976   1.919   3.789
    1MOL    C63  565   2.818   2.069   4.076
    1MOL    H49  566   2.795   1.977   4.131
    1MOL    O35  567   2.708   2.104   3.991
    1MOL    C64  568   2.625   1.997   3.952
    1MOL    H50  569   2.682   1.904   3.953
    1MOL    O36  570   2.519   1.976   4.044
    1MOL    C65  571   2.424   2.082   4.056
    1MOL    H51  572   2.474   2.175   4.085
    1MOL    C66  573   2.329   2.041   4.168
    1MOL    H52  574   2.304   1.934   4.155
    1MOL    H53  575   2.237   2.099   4.165
    1MOL    O37  576   2.396   2.061   4.292
    1MOL    C67  577   2.323   2.009   4.401
    1MOL    C68  578   2.567   2.021   3.812
    1MOL    H54  579   2.517   1.928   3.784
    1MOL    O38  580   2.672   2.050   3.720
    1MOL    C69  581   2.660   1.982   3.596
    1MOL    C70  582   2.462   2.133   3.813
    1MOL    H55  583   2.512   2.228   3.836
    1MOL    O39  584   2.402   2.139   3.684
    1MOL    C71  585   2.409   2.266   3.622
    1MOL    C72  586   2.355   2.106   3.920
    1MOL    H56  587   2.298   2.017   3.891
    1MOL    O40  588   2.267   2.220   3.921
    1MOL    H57  589   1.788   2.369   4.414
    1MOL    H58  590   1.946   2.308   4.472
    1MOL    H59  591   1.923   2.483   4.444
    1MOL    H60  592   2.381   2.030   4.491
    1MOL    H61  593   2.224   2.057   4.411
    1MOL    H62  594   2.308   1.901   4.393
    1MOL    H63  595   2.635   2.428   4.484
    1MOL    H64  596   2.530   2.308   4.401
    1MOL    H65  597   2.646   2.255   4.526
    1MOL    H66  598   3.138   2.272   4.596
    1MOL    H67  599   3.047   2.425   4.602
    1MOL    H68  600   2.982   2.285   4.511
    1MOL    H69  601   3.440   2.896   4.469
    1MOL    H70  602   3.274   2.944   4.514
    1MOL    H71  603   3.308   2.775   4.467
    1MOL    H72  604   3.180   3.528   4.140
    1MOL    H73  605   3.064   3.501   4.273
    1MOL    H74  606   3.191   3.380   4.240
    1MOL    H75  607   2.774   3.166   4.464
    1MOL    H76  608   2.704   3.001   4.471
    1MOL    H77  609   2.829   3.040   4.350
    1MOL    H78  610   2.129   2.982   4.615
    1MOL    H79  611   2.219   2.828   4.611
    1MOL    H80  612   2.290   2.975   4.538
    1MOL    H81  613   1.889   3.151   3.847
    1MOL    H82  614   2.052   3.081   3.835
    1MOL    H83  615   1.908   2.983   3.790
    1MOL    H84  616   1.670   2.693   3.834
    1MOL    H85  617   1.721   2.590   3.969
    1MOL    H86  618   1.640   2.746   4.001
    1MOL    H87  619   1.902   2.618   3.634
    1MOL    H88  620   2.042   2.666   3.733
    1MOL    H89  621   2.057   2.531   3.614
    1MOL    H90  622   2.084   2.149   3.534
    1MOL    H91  623   2.125   2.057   3.680
    1MOL    H92  624   1.957   2.113   3.653
    1MOL    H93  625   2.362   2.256   3.523
    1MOL    H94  626   2.353   2.342   3.679
    1MOL    H95  627   2.513   2.298   3.608
    1MOL    H96  628   2.745   2.015   3.535
    1MOL    H97  629   2.666   1.873   3.609
    1MOL    H98  630   2.567   2.007   3.545
    1MOL    H99  631   2.947   1.823   3.747
    1MOL   H100  632   2.933   1.999   3.728
    1MOL   H101  633   3.085   1.928   3.789
    1MOL   H102  634   3.368   1.944   3.982
    1MOL   H103  635   3.345   2.050   4.122
    1MOL   H104  636   3.276   1.884   4.122
    1MOL   H105  637   3.422   2.169   3.828
    1MOL   H106  638   3.257   2.235   3.812
    1MOL   H107  639   3.400   2.342   3.787
    1MOL   H108  640   3.629   2.623   3.861
    1MOL   H109  641   3.566   2.719   3.997
    1MOL   H110  642   3.648   2.562   4.028
    1MOL   H111  643   3.430   2.722   3.662
    1MOL   H112  644   3.280   2.662   3.735
    1MOL   H113  645   3.277   2.809   3.632
    1MOL   H114  646   3.236   3.189   3.580
    1MOL   H115  647   3.185   3.266   3.731
    1MOL   H116  648   3.356   3.215   3.710
    1MOL   H117  649   2.953   3.014   3.540
    1MOL   H118  650   2.969   2.949   3.705
    1MOL   H119  651   2.808   2.959   3.627
    1MOL   H120  652   2.544   3.243   3.523
    1MOL   H121  653   2.629   3.390   3.580
    1MOL   H122  654   2.723   3.245   3.532
    1MOL   H123  655   2.329   3.497   3.803
    1MOL   H124  656   2.363   3.327   3.758
    1MOL   H125  657   2.205   3.371   3.832
    1MOL   H126  658   1.936   3.352   4.065
    1MOL   H127  659   1.973   3.233   4.191
    1MOL   H128  660   2.044   3.398   4.199
    2SOL     OW  661   0.230   0.628   0.113
    2SOL    HW1  662   0.137   0.626   0.150
    2SOL    HW2  663   0.231   0.589   0.021
    3SOL     OW  664   0.225   0.275   0.996
    3SOL    HW1  665   0.260   0.258   1.088
    3SOL    HW2  666   0.137   0.230   0.984
    4SOL     OW  667   0.019   0.368   0.647
    4SOL    HW1  668  -0.063   0.411   0.686
    4SOL    HW2  669  -0.009   0.295   0.584
    5SOL     OW  670   0.569   1.275   1.165
    5SOL    HW1  671   0.476   1.268   1.128
    5SOL    HW2  672   0.580   1.364   1.209
    6SOL     OW  673   1.555   1.511   0.703
    6SOL    HW1  674   1.498   1.495   0.784
    6SOL    HW2  675   1.496   1.521   0.623
    7SOL     OW  676   1.135   0.703   0.717
    7SOL    HW1  677   1.192   0.781   0.692
    7SOL    HW2  678   1.075   0.729   0.793
    8SOL     OW  679   1.755   0.607   0.231
    8SOL    HW1  680   1.743   0.594   0.132
    8SOL    HW2  681   1.725   0.526   0.280
    9SOL     OW  682   0.768   1.144   1.023
    9SOL    HW1  683   0.690   1.161   1.083
    9SOL    HW2  684   0.802   1.231   0.987
   10SOL     OW  685   0.850   0.798   1.823
   10SOL    HW1  686   0.846   0.874   1.888
   10SOL    HW2  687   0.872   0.834   1.732
   11SOL     OW  688   0.685   1.012   0.665
   11SOL    HW1  689   0.754   0.996   0.735
   11SOL    HW2  690   0.612   1.069   0.703
   12SOL     OW  691   0.686   1.161   1.803
   12SOL    HW1  692   0.746   1.240   1.817
   12SOL    HW2  693   0.600   1.192   1.762
   13SOL     OW  694   0.335   1.435   1.061
   13SOL    HW1  695   0.257   1.404   1.008
   13SOL    HW2  696   0.393   1.493   1.004
   14SOL     OW  697   1.460   1.505   1.339
   14SOL    HW1  698   1.484   1.599   1.365
   14SOL    HW2  699   1.444   1.451   1.421
   15SOL     OW  700   0.438   0.392   1.499
   15SOL    HW1  701   0.520   0.336   1.508
   15SOL    HW2  702   0.357   0.334   1.503
   16SOL     OW  703   1.603   0.447   0.737
   16SOL    HW1  704   1.529   0.493   0.687
   16SOL    HW2  705   1.654   0.515   0.790
   17SOL     OW  706   0.231   1.713   0.483
   17SOL    HW1  707   0.265   1.790   0.537
   17SOL    HW2  708   0.275   1.713   0.393
   18SOL     OW  709   1.127   1.341   1.690
   18SOL    HW1  710   1.174   1.341   1.778
   18SOL    HW2  711   1.079   1.254   1.679
   19SOL     OW  712   0.230   1.434   0.538
   19SOL    HW1  713   0.204   1.530   0.538
   19SOL    HW2  714   0.159   1.380   0.583
   20SOL     OW  715   0.240   1.091   0.886
   20SOL    HW1  716   0.254   1.007   0.938
   20SOL    HW2  717   0.185   1.155   0.941
   21SOL     OW  718   0.620   1.786   1.439
   21SOL    HW1  719   0.528   1.769   1.474
   21SOL    HW2  720   0.648   1.878   1.465
   22SOL     OW  721   0.606   0.964   0.123
   22SOL    HW1  722   0.613   1.048   0.069
   22SOL    HW2  723   0.652   0.977   0.211
   23SOL     OW  724   1.594   0.114   1.480
   23SOL    HW1  725   1.576   0.181   1.408
   23SOL    HW2  726   1.591   0.160   1.569
   24SOL     OW  727   0.122   0.643   0.563
   24SOL    HW1  728   0.077   0.555   0.580
   24SOL    HW2  729   0.121   0.697   0.647
   25SOL     OW  730   1.842   1.767   0.359
   25SOL    HW1  731   1.896   1.738   0.439
   25SOL    HW2  732   1.872   1.857   0.330
   26SOL     OW  733   0.027   1.596   0.117
   26SOL    HW1  734   0.008   1.500   0.138
   26SOL    HW2  735  -0.006   1.654   0.192
   27SOL     OW  736   1.689   0.922   0.612
   27SOL    HW1  737   1.784   0.893   0.620
   27SOL    HW2  738   1.681   0.987   0.537
   28SOL     OW  739   1.641   1.108   0.432
   28SOL    HW1  740   1.727   1.110   0.380
   28SOL    HW2  741   1.655   1.155   0.520
   29SOL     OW  742   0.113   0.737   1.597
   29SOL    HW1  743   0.201   0.724   1.642
   29SOL    HW2  744   0.100   0.834   1.575
   30SOL     OW  745   0.613   1.365   0.726
   30SOL    HW1  746   0.564   1.278   0.735
   30SOL    HW2  747   0.590   1.408   0.639
   31SOL     OW  748   1.293   1.228   1.423
   31SOL    HW1  749   1.330   1.155   1.365
   31SOL    HW2  750   1.345   1.233   1.508
   32SOL     OW  751   0.809   0.004   0.502
   32SOL    HW1  752   0.849   0.095   0.493
   32SOL    HW2  753   0.709   0.012   0.508
   33SOL     OW  754   0.197   0.976   1.264
   33SOL    HW1  755   0.286   0.931   1.250
   33SOL    HW2  756   0.124   0.911   1.245
   34SOL     OW  757   1.525   0.999   0.190
   34SOL    HW1  758   1.462   0.923   0.203
   34SOL    HW2  759   1.573   1.017   0.276
   35SOL     OW  760   1.187   1.792   1.616
   35SOL    HW1  761   1.211   1.852   1.540
   35SOL    HW2  762   1.194   1.697   1.586
   36SOL     OW  763   0.317   0.251   1.801
   36SOL    HW1  764   0.388   0.322   1.807
   36SOL    HW2  765   0.229   0.290   1.829
   37SOL     OW  766   1.466   1.417   0.953
   37SOL    HW1  767   1.407   1.423   1.033
   37SOL    HW2  768   1.451   1.329   0.907
   38SOL     OW  769   1.667   1.714   0.572
   38SOL    HW1  770   1.626   1.691   0.484
   38SOL    HW2  771   1.649   1.640   0.637
   39SOL     OW  772   0.598   0.729   0.270
   39SOL    HW1  773   0.622   0.798   0.202
   39SOL    HW2  774   0.520   0.762   0.324
   40SOL     OW  775   1.281   0.345   0.944
   40SOL    HW1  776   1.195   0.295   0.931
   40SOL    HW2  777   1.343   0.291   1.000
   41SOL     OW  778   1.576   1.662   0.307
   41SOL    HW1  779   1.665   1.708   0.310
   41SOL    HW2  780   1.555   1.638   0.212
   42SOL     OW  781   0.807   0.605   1.465
   42SOL    HW1  782   0.760   0.602   1.554
   42SOL    HW2  783   0.756   0.550   1.399
   43SOL     OW  784   1.394   0.469   1.674
   43SOL    HW1  785   1.374   0.512   1.762
   43SOL    HW2  786   1.472   0.407   1.683
   44SOL     OW  787   0.973   0.890   1.572
   44SOL    HW1  788   1.019   0.806   1.543
   44SOL    HW2  789   0.917   0.924   1.497
   45SOL     OW  790   0.991   0.410   1.242
   45SOL    HW1  791   0.914   0.444   1.296
   45SOL    HW2  792   0.957   0.359   1.163
   46SOL     OW  793   1.041   0.701   0.429
   46SOL    HW1  794   1.067   0.697   0.525
   46SOL    HW2  795   0.956   0.650   0.415
   47SOL     OW  796   0.076   0.811   0.789
   47SOL    HW1  797   0.175   0.799   0.798
   47SOL    HW2  798   0.052   0.906   0.810
   48SOL     OW  799   0.130   1.821   1.571
   48SOL    HW1  800   0.120   1.806   1.670
   48SOL    HW2  801   0.044   1.857   1.535
   49SOL     OW  802   0.865   0.348   0.195
   49SOL    HW1  803   0.924   0.411   0.146
   49SOL    HW2  804   0.884   0.254   0.166
   50SOL     OW  805   1.719   0.585   1.831
   50SOL    HW1  806   1.693   0.674   1.795
   50SOL    HW2  807   1.717   0.517   1.758
   51SOL     OW  808   1.362   1.144   0.545
   51SOL    HW1  809   1.445   1.115   0.497
   51SOL    HW2  810   1.313   1.211   0.489
   52SOL     OW  811   0.550   0.196   0.885
   52SOL    HW1  812   0.545   0.191   0.985
   52SOL    HW2  813   0.552   0.292   0.856
   53SOL     OW  814   1.008   1.456   0.477
   53SOL    HW1  815   0.962   1.528   0.425
   53SOL    HW2  816   1.004   1.476   0.575
   54SOL     OW  817   0.351   1.801   0.853
   54SOL    HW1  818   0.401   1.715   0.859
   54SOL    HW2  819   0.416   1.878   0.850
   55SOL     OW  820   1.795   1.066   0.873
   55SOL    HW1  821   1.733   1.051   0.797
   55SOL    HW2  822   1.743   1.077   0.958
   56SOL     OW  823   1.227   1.550   1.506
   56SOL    HW1  824   1.233   1.473   1.570
   56SOL    HW2  825   1.175   1.524   1.426
   57SOL     OW  826   0.321   0.943   0.242
   57SOL    HW1  827   0.403   0.982   0.200
   57SOL    HW2  828   0.294   0.861   0.193
   58SOL     OW  829   1.458   0.735   0.728
   58SOL    HW1  830   1.453   0.670   0.803
   58SOL    HW2  831   1.538   0.794   0.741
   59SOL     OW  832   0.461   1.266   1.727
   59SOL    HW1  833   0.411   1.267   1.641
   59SOL    HW2  834   0.398   1.248   1.803
   60SOL     OW  835   1.111   1.776   0.237
   60SOL    HW1  836   1.051   1.714   0.287
   60SOL    HW2  837   1.142   1.732   0.152
   61SOL     OW  838   0.202   0.285   1.498
   61SOL    HW1  839   0.122   0.345   1.485
   61SOL    HW2  840   0.192   0.236   1.584
   62SOL     OW  841   1.632   1.377   0.081
   62SOL    HW1  842   1.600   1.471   0.071
   62SOL    HW2  843   1.556   1.314   0.069
   63SOL     OW  844   0.464   1.743   0.323
   63SOL    HW1  845   0.497   1.782   0.409
   63SOL    HW2  846   0.540   1.736   0.258
   64SOL     OW  847   1.400   0.107   0.426
   64SOL    HW1  848   1.376   0.070   0.336
   64SOL    HW2  849   1.499   0.123   0.430
   65SOL     OW  850   0.249   1.785   1.241
   65SOL    HW1  851   0.306   1.720   1.291
   65SOL    HW2  852   0.233   1.752   1.148
   66SOL     OW  853   0.940   1.698   0.904
   66SOL    HW1  854   1.020   1.641   0.925
   66SOL    HW2  855   0.891   1.658   0.827
   67SOL     OW  856   0.382   0.700   0.480
   67SOL    HW1  857   0.427   0.610   0.477
   67SOL    HW2  858   0.288   0.689   0.513
   68SOL     OW  859   1.547   0.222   1.729
   68SOL    HW1  860   1.542   0.259   1.821
   68SOL    HW2  861   1.475   0.153   1.717
   69SOL     OW  862   0.614   0.122   0.117
   69SOL    HW1  863   0.712   0.100   0.124
   69SOL    HW2  864   0.583   0.105   0.024
   70SOL     OW  865   0.781   0.264   1.749
   70SOL    HW1  866   0.848   0.203   1.792
   70SOL    HW2  867   0.708   0.283   1.814
   71SOL     OW  868   0.888   1.514   1.195
   71SOL    HW1  869   0.865   1.489   1.101
   71SOL    HW2  870   0.949   1.445   1.234
   72SOL     OW  871   1.351   0.590   1.433
   72SOL    HW1  872   1.379   0.547   1.518
   72SOL    HW2  873   1.376   0.686   1.434
   73SOL     OW  874   0.803   1.402   0.924
   73SOL    HW1  875   0.893   1.416   0.882
   73SOL    HW2  876   0.732   1.404   0.853
   74SOL     OW  877   0.922   0.503   0.899
   74SOL    HW1  878   0.897   0.494   0.803
   74SOL    HW2  879   0.970   0.421   0.930
   75SOL     OW  880   0.539   0.064   0.512
   75SOL    HW1  881   0.458   0.065   0.570
   75SOL    HW2  882   0.542   0.147   0.457
   76SOL     OW  883   1.434   1.188   0.041
   76SOL    HW1  884   1.466   1.112   0.098
   76SOL    HW2  885   1.342   1.215   0.071
   77SOL     OW  886   0.297   0.035   0.171
   77SOL    HW1  887   0.346   0.119   0.150
   77SOL    HW2  888   0.359  -0.030   0.216
   78SOL     OW  889   0.935   0.236   0.480
   78SOL    HW1  890   0.887   0.277   0.402
   78SOL    HW2  891   1.034   0.234   0.461
   79SOL     OW  892   1.076   0.683   1.464
   79SOL    HW1  893   0.996   0.622   1.467
   79SOL    HW2  894   1.157   0.630   1.440
   80SOL     OW  895   1.227   1.570   0.793
   80SOL    HW1  896   1.248   1.644   0.728
   80SOL    HW2  897   1.295   1.570   0.866
   81SOL     OW  898   0.459   1.152   0.741
   81SOL    HW1  899   0.388   1.125   0.806
   81SOL    HW2  900   0.433   1.124   0.648
   82SOL     OW  901   1.271   1.797   0.591
   82SOL    HW1  902   1.315   1.861   0.527
   82SOL    HW2  903   1.221   1.849   0.661
   83SOL     OW  904   1.032   0.549   0.016
   83SOL    HW1  905   0.991   0.631  -0.023
   83SOL    HW2  906   1.096   0.575   0.089
   84SOL     OW  907   0.078   0.556   1.386
   84SOL    HW1  908   0.170   0.555   1.345
   84SOL    HW2  909   0.072   0.630   1.453
   85SOL     OW  910   0.561   0.222   1.147
   85SOL    HW1  911   0.599   0.138   1.184
   85SOL    HW2  912   0.473   0.241   1.191
   86SOL     OW  913   0.866   0.454   0.642
   86SOL    HW1  914   0.834   0.526   0.580
   86SOL    HW2  915   0.890   0.373   0.589
   87SOL     OW  916   1.017   0.039   0.753
   87SOL    HW1  917   0.945   0.044   0.684
   87SOL    HW2  918   0.993  -0.030   0.822
   88SOL     OW  919   1.429   1.173   0.867
   88SOL    HW1  920   1.374   1.089   0.860
   88SOL    HW2  921   1.455   1.202   0.775
   89SOL     OW  922   1.466   0.590   0.992
   89SOL    HW1  923   1.436   0.495   0.999
   89SOL    HW2  924   1.539   0.606   1.058
   90SOL     OW  925   1.857   0.833   0.377
   90SOL    HW1  926   1.899   0.769   0.441
   90SOL    HW2  927   1.819   0.782   0.299
   91SOL     OW  928   0.488   1.385   0.174
   91SOL    HW1  929   0.401   1.370   0.221
   91SOL    HW2  930   0.471   1.411   0.079
   92SOL     OW  931   1.664   1.280   0.657
   92SOL    HW1  932   1.763   1.288   0.671
   92SOL    HW2  933   1.619   1.364   0.688
   93SOL     OW  934   1.390   0.575   0.078
   93SOL    HW1  935   1.336   0.554   0.159
   93SOL    HW2  936   1.481   0.534   0.087
   94SOL     OW  937   0.527   0.256   0.328
   94SOL    HW1  938   0.554   0.197   0.253
   94SOL    HW2  939   0.527   0.351   0.297
   95SOL     OW  940   1.754   1.223   1.588
   95SOL    HW1  941   1.845   1.184   1.575
   95SOL    HW2  942   1.762   1.319   1.612
   96SOL     OW  943   1.064   1.347   1.340
   96SOL    HW1  944   0.984   1.324   1.395
   96SOL    HW2  945   1.147   1.321   1.389
   97SOL     OW  946   1.592   1.629   1.625
   97SOL    HW1  947   1.619   1.663   1.535
   97SOL    HW2  948   1.671   1.591   1.671
   98SOL     OW  949   1.111   1.195   1.100
   98SOL    HW1  950   1.071   1.239   1.181
   98SOL    HW2  951   1.070   1.232   1.017
   99SOL     OW  952   1.638   1.099   1.079
   99SOL    HW1  953   1.643   1.180   1.138
   99SOL    HW2  954   1.552   1.101   1.028
  100SOL     OW  955   0.915   0.089   1.402
  100SOL    HW1  956   0.940   0.069   1.307
  100SOL    HW2  957   0.987   0.145   1.444
  101SOL     OW  958   0.980   1.116   1.719
  101SOL    HW1  959   0.881   1.122   1.729
  101SOL    HW2  960   1.003   1.036   1.663
  102SOL     OW  961   0.705   1.050   0.368
  102SOL    HW1  962   0.691   1.057   0.467
  102SOL    HW2  963   0.789   0.999   0.350
  103SOL     OW  964   0.410   0.813   1.251
  103SOL    HW1  965   0.496   0.825   1.301
  103SOL    HW2  966   0.368   0.726   1.278
  104SOL     OW  967   1.274   0.386   1.262
  104SOL    HW1  968   1.295   0.460   1.326
  104SOL    HW2  969   1.185   0.403   1.219
  105SOL     OW  970   0.064   1.564   1.331
  105SOL    HW1  971   0.018   1.646   1.297
  105SOL    HW2  972   0.162   1.583   1.340
  106SOL     OW  973   0.367   1.100   0.501
  106SOL    HW1  974   0.360   1.183   0.445
  106SOL    HW2  975   0.371   1.020   0.441
  107SOL     OW  976   0.566   0.537   0.865
  107SOL    HW1  977   0.578   0.603   0.791
  107SOL    HW2  978   0.612   0.571   0.948
  108SOL     OW  979   1.252   1.348   0.388
  108SOL    HW1  980   1.302   1.425   0.428
  108SOL    HW2  981   1.157   1.350   0.420
  109SOL     OW  982   1.272   1.445   1.142
  109SOL    HW1  983   1.319   1.458   1.229
  109SOL    HW2  984   1.206   1.371   1.151
  110SOL     OW  985   1.582   0.639   0.472
  110SOL    HW1  986   1.551   0.700   0.545
  110SOL    HW2  987   1.632   0.691   0.403
  111SOL     OW  988   0.354   1.510   1.329
  111SOL    HW1  989   0.333   1.466   1.242
  111SOL    HW2  990   0.451   1.536   1.332
  112SOL     OW  991   0.402   0.751   1.598
  112SOL    HW1  992   0.470   0.806   1.551
  112SOL    HW2  993   0.442   0.663   1.625
  113SOL     OW  994   1.587   0.779   1.670
  113SOL    HW1  995   1.495   0.817   1.665
  113SOL    HW2  996   1.647   0.826   1.605
  114SOL     OW  997   1.013   0.105   1.770
  114SOL    HW1  998   1.019   0.190   1.718
  114SOL    HW2  999   1.045   0.029   1.713
  115SOL     OW 1000   0.504   0.050   1.740
  115SOL    HW1 1001   0.462  -0.007   1.670
  115SOL    HW2 1002   0.438   0.119   1.772
  116SOL     OW 1003   0.573   0.870   1.029
  116SOL    HW1 1004   0.617   0.959   1.020
  116SOL    HW2 1005   0.510   0.870   1.106
  117SOL     OW 1006   1.360   0.862   1.045
  117SOL    HW1 1007   1.285   0.862   0.979
  117SOL    HW2 1008   1.397   0.770   1.054
  118SOL     OW 1009   1.209   0.525   0.275
  118SOL    HW1 1010   1.222   0.441   0.329
  118SOL    HW2 1011   1.180   0.599   0.335
  119SOL     OW 1012   0.307   0.213   1.231
  119SOL    HW1 1013   0.284   0.250   1.321
  119SOL    HW2 1014   0.277   0.118   1.225
  120SOL     OW 1015   0.037   1.310   1.282
  120SOL    HW1 1016   0.090   1.261   1.350
  120SOL    HW2 1017   0.059   1.408   1.287
  121SOL     OW 1018   0.732   0.634   1.064
  121SOL    HW1 1019   0.791   0.608   0.988
  121SOL    HW2 1020   0.704   0.730   1.053
  122SOL     OW 1021   1.728   0.935   1.854
  122SOL    HW1 1022   1.682   0.928   1.765
  122SOL    HW2 1023   1.666   0.979   1.920
  123SOL     OW 1024   0.307   0.063   0.618
  123SOL    HW1 1025   0.296   0.157   0.651
  123SOL    HW2 1026   0.302   0.000   0.695
  124SOL     OW 1027   1.622   0.367   0.374
  124SOL    HW1 1028   1.624   0.291   0.438
  124SOL    HW2 1029   1.574   0.444   0.414
  125SOL     OW 1030   1.023   0.766   0.966
  125SOL    HW1 1031   1.038   0.787   1.062
  125SOL    HW2 1032   0.993   0.671   0.957
  126SOL     OW 1033   0.980   1.573   1.700
  126SOL    HW1 1034   0.960   1.617   1.612
  126SOL    HW2 1035   1.019   1.482   1.684
  127SOL     OW 1036   1.859   1.518   1.605
  127SOL    HW1 1037   1.873   1.545   1.510
  127SOL    HW2 1038   1.942   1.540   1.658
  128SOL     OW 1039   0.350   0.898   1.804
  128SOL    HW1 1040   0.426   0.942   1.852
  128SOL    HW2 1041   0.385   0.851   1.722
  129SOL     OW 1042   1.540   0.274   0.125
  129SOL    HW1 1043   1.479   0.199   0.148
  129SOL    HW2 1044   1.562   0.326   0.208
  130SOL     OW 1045   1.303   0.838   0.042
  130SOL    HW1 1046   1.337   0.745   0.057
  130SOL    HW2 1047   1.321   0.865  -0.053
  131SOL     OW 1048   1.068   1.333   0.849
  131SOL    HW1 1049   1.075   1.249   0.794
  131SOL    HW2 1050   1.130   1.402   0.813
  132SOL     OW 1051   0.319   0.810   0.949
  132SOL    HW1 1052   0.412   0.846   0.954
  132SOL    HW2 1053   0.313   0.725   1.001
  133SOL     OW 1054   0.339   0.509   1.006
  133SOL    HW1 1055   0.287   0.426   0.989
  133SOL    HW2 1056   0.416   0.514   0.942
  134SOL     OW 1057   1.138   0.380   1.678
  134SOL    HW1 1058   1.093   0.443   1.742
  134SOL    HW2 1059   1.231   0.411   1.661
  135SOL     OW 1060   1.160   0.207   1.477
  135SOL    HW1 1061   1.160   0.271   1.554
  135SOL    HW2 1062   1.188   0.255   1.394
  136SOL     OW 1063   0.008   1.326   0.200
  136SOL    HW1 1064  -0.085   1.347   0.169
  136SOL    HW2 1065   0.018   1.227   0.213
  137SOL     OW 1066   0.088   1.801   0.927
  137SOL    HW1 1067   0.046   1.715   0.900
  137SOL    HW2 1068   0.182   1.804   0.893
  138SOL     OW 1069   0.504   1.568   0.910
  138SOL    HW1 1070   0.570   1.642   0.919
  138SOL    HW2 1071   0.548   1.489   0.868
  139SOL     OW 1072   1.002   0.796   1.238
  139SOL    HW1 1073   1.043   0.764   1.324
  139SOL    HW2 1074   0.906   0.769   1.235
  140SOL     OW 1075   0.040   0.544   1.114
  140SOL    HW1 1076   0.125   0.511   1.073
  140SOL    HW2 1077   0.053   0.559   1.212
  141SOL     OW 1078   0.189   0.520   1.722
  141SOL    HW1 1079   0.248   0.480   1.652
  141SOL    HW2 1080   0.131   0.591   1.681
  142SOL     OW 1081   1.369   0.950   1.660
  142SOL    HW1 1082   1.408   1.039   1.680
  142SOL    HW2 1083   1.379   0.930   1.563
  143SOL     OW 1084   0.815   0.572   0.325
  143SOL    HW1 1085   0.822   0.483   0.279
  143SOL    HW2 1086   0.721   0.606   0.317
  144SOL     OW 1087   1.657   0.604   1.206
  144SOL    HW1 1088   1.619   0.535   1.268
  144SOL    HW2 1089   1.739   0.568   1.162
  145SOL     OW 1090   0.252   1.564   1.744
  145SOL    HW1 1091   0.222   1.621   1.820
  145SOL    HW2 1092   0.245   1.467   1.770
  146SOL     OW 1093   0.671   0.464   1.269
  146SOL    HW1 1094   0.637   0.375   1.239
  146SOL    HW2 1095   0.697   0.518   1.189
  147SOL     OW 1096   0.930   1.678   1.465
  147SOL    HW1 1097   0.906   1.660   1.370
  147SOL    HW2 1098   0.960   1.772   1.475
  148SOL     OW 1099   0.473   0.500   0.191
  148SOL    HW1 1100   0.534   0.580   0.195
  148SOL    HW2 1101   0.378   0.531   0.198
  149SOL     OW 1102   0.159   1.137   1.466
  149SOL    HW1 1103   0.181   1.076   1.542
  149SOL    HW2 1104   0.169   1.088   1.380
  150SOL     OW 1105   1.347   1.059   1.234
  150SOL    HW1 1106   1.371   0.996   1.160
  150SOL    HW2 1107   1.257   1.099   1.216
  151SOL     OW 1108   1.302   0.855   0.309
  151SOL    HW1 1109   1.216   0.824   0.351
  151SOL    HW2 1110   1.298   0.841   0.210
  152SOL     OW 1111   1.759   1.747   1.154
  152SOL    HW1 1112   1.820   1.777   1.081
  152SOL    HW2 1113   1.721   1.658   1.132
  153SOL     OW 1114   1.252   1.731   1.128
  153SOL    HW1 1115   1.336   1.736   1.074
  153SOL    HW2 1116   1.229   1.635   1.146
  154SOL     OW 1117   0.083   1.258   1.022
  154SOL    HW1 1118   0.078   1.257   1.122
  154SOL    HW2 1119   0.000   1.217   0.984
  155SOL     OW 1120   0.688   1.662   1.716
  155SOL    HW1 1121   0.632   1.743   1.725
  155SOL    HW2 1122   0.740   1.666   1.630
  156SOL     OW 1123   0.903   0.086   0.133
  156SOL    HW1 1124   0.954   0.087   0.047
  156SOL    HW2 1125   0.959   0.044   0.204
  157SOL     OW 1126   1.726   0.135   0.523
  157SOL    HW1 1127   1.799   0.118   0.456
  157SOL    HW2 1128   1.695   0.048   0.561
  158SOL     OW 1129   1.388   1.573   0.477
  158SOL    HW1 1130   1.455   1.585   0.403
  158SOL    HW2 1131   1.348   1.662   0.500
  159SOL     OW 1132   0.130   1.794   1.851
  159SOL    HW1 1133   0.089   1.720   1.904
  159SOL    HW2 1134   0.194   1.845   1.909
  160SOL     OW 1135   1.280   0.927   0.672
  160SOL    HW1 1136   1.340   0.846   0.674
  160SOL    HW2 1137   1.320   0.996   0.612
  161SOL     OW 1138   0.830   1.273   1.422
  161SOL    HW1 1139   0.825   1.306   1.517
  161SOL    HW2 1140   0.744   1.292   1.376
  162SOL     OW 1141   0.672   1.616   0.154
  162SOL    HW1 1142   0.681   1.626   0.055
  162SOL    HW2 1143   0.632   1.527   0.175
  163SOL     OW 1144   1.650   1.720   1.394
  163SOL    HW1 1145   1.703   1.730   1.310
  163SOL    HW2 1146   1.623   1.810   1.428
  164SOL     OW 1147   1.841   0.175   0.963
  164SOL    HW1 1148   1.880   0.090   0.927
  164SOL    HW2 1149   1.743   0.177   0.944
  165SOL     OW 1150   0.263   0.326   0.720
  165SOL    HW1 1151   0.184   0.377   0.686
  165SOL    HW2 1152   0.254   0.311   0.818
  166SOL     OW 1153   1.194   1.612   0.031
  166SOL    HW1 1154   1.200   1.519   0.068
  166SOL    HW2 1155   1.135   1.612  -0.049
  167SOL     OW 1156   0.822   1.002   1.372
  167SOL    HW1 1157   0.862   1.001   1.280
  167SOL    HW2 1158   0.832   1.094   1.412
  168SOL     OW 1159   0.916   0.910   0.291
  168SOL    HW1 1160   0.979   0.948   0.223
  168SOL    HW2 1161   0.956   0.827   0.330
  169SOL     OW 1162   1.504   1.607   0.044
  169SOL    HW1 1163   1.412   1.644   0.051
  169SOL    HW2 1164   1.542   1.627  -0.046
  170SOL     OW 1165   0.372   1.288   1.490
  170SOL    HW1 1166   0.359   1.381   1.456
  170SOL    HW2 1167   0.288   1.236   1.477
  171SOL     OW 1168   1.614   1.292   1.289
  171SOL    HW1 1169   1.674   1.295   1.369
  171SOL    HW2 1170   1.539   1.356   1.302
  172SOL     OW 1171   1.039   1.098   0.696
  172SOL    HW1 1172   0.969   1.051   0.750
  172SOL    HW2 1173   1.098   1.030   0.653
  173SOL     OW 1174   1.014   0.236   0.971
  173SOL    HW1 1175   1.006   0.200   0.878
  173SOL    HW2 1176   1.012   0.160   1.036
  174SOL     OW 1177   0.590   1.487   0.491
  174SOL    HW1 1178   0.632   1.429   0.421
  174SOL    HW2 1179   0.546   1.566   0.447
  175SOL     OW 1180   1.709   0.385   1.381
  175SOL    HW1 1181   1.782   0.454   1.385
  175SOL    HW2 1182   1.737   0.310   1.322
  176SOL     OW 1183   0.255   1.348   0.290
  176SOL    HW1 1184   0.159   1.349   0.263
  176SOL    HW2 1185   0.267   1.401   0.374
  177SOL     OW 1186   0.105   1.013   1.726
  177SOL    HW1 1187   0.028   0.980   1.780
  177SOL    HW2 1188   0.190   0.983   1.768
  178SOL     OW 1189   0.672   0.203   1.489
  178SOL    HW1 1190   0.762   0.187   1.449
  178SOL    HW2 1191   0.680   0.208   1.588
  179SOL     OW 1192   0.075   0.345   0.033
  179SOL    HW1 1193  -0.017   0.317   0.004
  179SOL    HW2 1194   0.106   0.422  -0.023
  180SOL     OW 1195   1.440   0.856   1.398
  180SOL    HW1 1196   1.383   0.908   1.335
  180SOL    HW2 1197   1.536   0.868   1.374
  181SOL     OW 1198   0.072   0.166   0.318
  181SOL    HW1 1199   0.055   0.249   0.264
  181SOL    HW2 1200   0.162   0.129   0.296
  182SOL     OW 1201   1.183   1.335   0.119
  182SOL    HW1 1202   1.084   1.324   0.121
  182SOL    HW2 1203   1.217   1.350   0.212
  183SOL     OW 1204   0.613   0.842   1.431
  183SOL    HW1 1205   0.669   0.923   1.414
  183SOL    HW2 1206   0.672   0.762   1.434
  184SOL     OW 1207   1.493   1.767   0.959
  184SOL    HW1 1208   1.526   1.831   0.890
  184SOL    HW2 1209   1.559   1.761   1.034
  185SOL     OW 1210   0.716   0.565   1.708
  185SOL    HW1 1211   0.735   0.630   1.782
  185SOL    HW2 1212   0.776   0.485   1.717
  186SOL     OW 1213   1.450   1.220   1.633
  186SOL    HW1 1214   1.441   1.210   1.732
  186SOL    HW2 1215   1.546   1.213   1.607
  187SOL     OW 1216   0.390   1.741   1.560
  187SOL    HW1 1217   0.299   1.782   1.558
  187SOL    HW2 1218   0.383   1.647   1.592
  188SOL     OW 1219   1.674   0.883   1.254
  188SOL    HW1 1220   1.647   0.794   1.217
  188SOL    HW2 1221   1.675   0.951   1.181
  189SOL     OW 1222   1.225   0.325   0.449
  189SOL    HW1 1223   1.290   0.251   0.438
  189SOL    HW2 1224   1.245   0.375   0.533
  190SOL     OW 1225   0.594   0.745   0.652
  190SOL    HW1 1226   0.644   0.830   0.633
  190SOL    HW2 1227   0.506   0.747   0.604
  191SOL     OW 1228   1.777   0.342   1.642
  191SOL    HW1 1229   1.760   0.373   1.548
  191SOL    HW2 1230   1.693   0.305   1.680
  192SOL     OW 1231   1.730   0.934   1.517
  192SOL    HW1 1232   1.768   1.025   1.532
  192SOL    HW2 1233   1.722   0.917   1.418
  193SOL     OW 1234   0.859   1.374   0.016
  193SOL    HW1 1235   0.813   1.389   0.104
  193SOL    HW2 1236   0.903   1.459  -0.014
  194SOL     OW 1237   0.661   1.790   0.953
  194SOL    HW1 1238   0.615   1.878   0.940
  194SOL    HW2 1239   0.760   1.802   0.946
  195SOL     OW 1240   0.859   0.956   0.861
  195SOL    HW1 1241   0.913   0.887   0.909
  195SOL    HW2 1242   0.827   1.025   0.927
  196SOL     OW 1243   1.083   0.984   0.087
  196SOL    HW1 1244   1.060   1.037   0.005
  196SOL    HW2 1245   1.164   0.928   0.068
  197SOL     OW 1246   1.861   1.569   0.851
  197SOL    HW1 1247   1.790   1.557   0.781
  197SOL    HW2 1248   1.862   1.490   0.911
  198SOL     OW 1249   0.221   1.314   1.844
  198SOL    HW1 1250   0.156   1.241   1.823
  198SOL    HW2 1251   0.225   1.328   1.942
  199SOL     OW 1252   0.079   1.240   0.653
  199SOL    HW1 1253   0.078   1.193   0.741
  199SOL    HW2 1254   0.161   1.212   0.602
  200SOL     OW 1255   0.672   1.391   1.624
  200SOL    HW1 1256   0.594   1.341   1.662
  200SOL    HW2 1257   0.669   1.486   1.655
  201SOL     OW 1258   1.824   0.192   1.227
  201SOL    HW1 1259   1.820   0.102   1.271
  201SOL    HW2 1260   1.827   0.181   1.128
  202SOL     OW 1261   0.428   0.424   0.520
  202SOL    HW1 1262   0.458   0.352   0.458
  202SOL    HW2 1263   0.389   0.384   0.603
  203SOL     OW 1264   1.705   1.487   1.104
  203SOL    HW1 1265   1.612   1.462   1.077
  203SOL    HW2 1266   1.731   1.437   1.186
  204SOL     OW 1267   0.317   0.547   1.280
  204SOL    HW1 1268   0.355   0.488   1.352
  204SOL    HW2 1269   0.357   0.521   1.192
  205SOL     OW 1270   0.812   1.586   0.687
  205SOL    HW1 1271   0.844   1.596   0.593
  205SOL    HW2 1272   0.733   1.524   0.689
  206SOL     OW 1273   1.424   0.214   1.112
  206SOL    HW1 1274   1.476   0.149   1.167
  206SOL    HW2 1275   1.375   0.277   1.173
  207SOL     OW 1276   1.001   0.034   1.154
  207SOL    HW1 1277   0.938  -0.038   1.123
  207SOL    HW2 1278   1.094  -0.002   1.154
  208SOL     OW 1279   0.770   1.330   0.301
  208SOL    HW1 1280   0.724   1.243   0.318
  208SOL    HW2 1281   0.861   1.327   0.342
  209SOL     OW 1282   0.618   1.567   1.284
  209SOL    HW1 1283   0.613   1.649   1.341
  209SOL    HW2 1284   0.707   1.564   1.239
  210SOL     OW 1285   1.352   0.052   0.168
  210SOL    HW1 1286   1.387   0.011   0.084
  210SOL    HW2 1287   1.262   0.014   0.188
  211SOL     OW 1288   1.300   0.453   0.691
  211SOL    HW1 1289   1.241   0.533   0.695
  211SOL    HW2 1290   1.315   0.418   0.784
  212SOL     OW 1291   1.593   0.221   0.882
  212SOL    HW1 1292   1.509   0.220   0.936
  212SOL    HW2 1293   1.595   0.304   0.826
  213SOL     OW 1294   0.039   1.077   0.300
  213SOL    HW1 1295   0.138   1.066   0.291
  213SOL    HW2 1296  -0.001   0.991   0.332
  214SOL     OW 1297   0.875   1.646   0.337
  214SOL    HW1 1298   0.798   1.611   0.283
  214SOL    HW2 1299   0.843   1.717   0.399
  215SOL     OW 1300   0.230   0.628   1.975
  215SOL    HW1 1301   0.137   0.626   2.012
  215SOL    HW2 1302   0.231   0.589   1.883
  216SOL     OW 1303   0.225   0.275   2.858
  216SOL    HW1 1304   0.260   0.258   2.950
  216SOL    HW2 1305   0.137   0.230   2.846
  217SOL     OW 1306   0.019   0.368   2.509
  217SOL    HW1 1307  -0.063   0.411   2.548
  217SOL    HW2 1308  -0.009   0.295   2.446
  218SOL     OW 1309   0.569   1.275   3.027
  218SOL    HW1 1310   0.476   1.268   2.990
  218SOL    HW2 1311   0.580   1.364   3.071
  219SOL     OW 1312   1.555   1.511   2.565
  219SOL    HW1 1313   1.498   1.495   2.646
  219SOL    HW2 1314   1.496   1.521   2.485
  220SOL     OW 1315   1.135   0.703   2.579
  220SOL    HW1 1316   1.192   0.781   2.554
  220SOL    HW2 1317   1.075   0.729   2.655
  221SOL     OW 1318   1.755   0.607   2.093
  221SOL    HW1 1319   1.743   0.594   1.994
  221SOL    HW2 1320   1.725   0.526   2.142
  222SOL     OW 1321   0.768   1.144   2.885
  222SOL    HW1 1322   0.690   1.161   2.945
  222SOL    HW2 1323   0.802   1.231   2.849
  223SOL     OW 1324   0.850   0.798   3.685
  223SOL    HW1 1325   0.846   0.874   3.750
  223SOL    HW2 1326   0.872   0.834   3.594
  224SOL     OW 1327   0.685   1.012   2.527
  224SOL    HW1 1328   0.754   0.996   2.597
  224SOL    HW2 1329   0.612   1.069   2.565
  225SOL     OW 1330   0.686   1.161   3.665
  225SOL    HW1 1331   0.746   1.240   3.679
  225SOL    HW2 1332   0.600   1.192   3.624
  226SOL     OW 1333   0.335   1.435   2.923
  226SOL    HW1 1334   0.257   1.404   2.870
  226SOL    HW2 1335   0.393   1.493   2.866
  227SOL     OW 1336   1.460   1.505   3.201
  227SOL    HW1 1337   1.484   1.599   3.227
  227SOL    HW2 1338   1.444   1.451   3.283
  228SOL     OW 1339   0.438   0.392   3.361
  228SOL    HW1 1340   0.520   0.336   3.370
  228SOL    HW2 1341   0.357   0.334   3.365
  229SOL     OW 1342   1.603   0.447   2.599
  229SOL    HW1 1343   1.529   0.493   2.549
  229SOL    HW2 1344   1.654   0.515   2.652
  230SOL     OW 1345   0.231   1.713   2.345
  230SOL    HW1 1346   0.265   1.790   2.399
  230SOL    HW2 1347   0.275   1.713   2.255
  231SOL     OW 1348   1.127   1.341   3.552
  231SOL    HW1 1349   1.174   1.341   3.640
  231SOL    HW2 1350   1.079   1.254   3.541
  232SOL     OW 1351   0.230   1.434   2.400
  232SOL    HW1 1352   0.204   1.530   2.400
  232SOL    HW2 1353   0.159   1.380   2.445
  233SOL     OW 1354   0.240   1.091   2.748
  233SOL    HW1 1355   0.254   1.007   2.800
  233SOL    HW2 1356   0.185   1.155   2.803
  234SOL     OW 1357   0.620   1.786   3.301
  234SOL    HW1 1358   0.528   1.769   3.336
  234SOL    HW2 1359   0.648   1.878   3.327
  235SOL     OW 1360   0.606   0.964   1.985
  235SOL    HW1 1361   0.613   1.048   1.931
  235SOL    HW2 1362   0.652   0.977   2.073
  236SOL     OW 1363   1.594   0.114   3.342
  236SOL    HW1 1364   1.576   0.181   3.270
  236SOL    HW2 1365   1.591   0.160   3.431
  237SOL     OW 1366   0.122   0.643   2.425
  237SOL    HW1 1367   0.077   0.555   2.442
  237SOL    HW2 1368   0.121   0.697   2.509
  238SOL     OW 1369   1.842   1.767   2.221
  238SOL    HW1 1370   1.896   1.738   2.301
  238SOL    HW2 1371   1.872   1.857   2.192
  239SOL     OW 1372   0.027   1.596   1.979
  239SOL    HW1 1373   0.008   1.500   2.000
  239SOL    HW2 1374  -0.006   1.654   2.054
  240SOL     OW 1375   1.689   0.922   2.474
  240SOL    HW1 1376   1.784   0.893   2.482
  240SOL    HW2 1377   1.681   0.987   2.399
  241SOL     OW 1378   1.641   1.108   2.294
  241SOL    HW1 1379   1.727   1.110   2.242
  241SOL    HW2 1380   1.655   1.155   2.382
  242SOL     OW 1381   0.113   0.737   3.459
  242SOL    HW1 1382   0.201   0.724   3.504
  242SOL    HW2 1383   0.100   0.834   3.437
  243SOL     OW 1384   0.613   1.365   2.588
  243SOL    HW1 1385   0.564   1.278   2.597
  243SOL    HW2 1386   0.590   1.408   2.501
  244SOL     OW 1387   1.293   1.228   3.285
  244SOL    HW1 1388   1.330   1.155   3.227
  244SOL    HW2 1389   1.345   1.233   3.370
  245SOL     OW 1390   0.809   0.004   2.364
  245SOL    HW1 1391   0.849   0.095   2.355
  245SOL    HW2 1392   0.709   0.012   2.370
  246SOL     OW 1393   0.197   0.976   3.126
  246SOL    HW1 1394   0.286   0.931   3.112
  246SOL    HW2 1395   0.124   0.911   3.107
  247SOL     OW 1396   1.525   0.999   2.052
  247SOL    HW1 1397   1.462   0.923   2.065
  247SOL    HW2 1398   1.573   1.017   2.138
  248SOL     OW 1399   1.187   1.792   3.478
  248SOL    HW1 1400   1.211   1.852   3.402
  248SOL    HW2 1401   1.194   1.697   3.448
  249SOL     OW 1402   0.317   0.251   3.663
  249SOL    HW1 1403   0.388   0.322   3.669
  249SOL    HW2 1404   0.229   0.290   3.691
  250SOL     OW 1405   1.466   1.417   2.815
  250SOL    HW1 1406   1.407   1.423   2.895
  250SOL    HW2 1407   1.451   1.329   2.769
  251SOL     OW 1408   1.667   1.714   2.434
  251SOL    HW1 1409   1.626   1.691   2.346
  251SOL    HW2 1410   1.649   1.640   2.499
  252SOL     OW 1411   0.598   0.729   2.132
  252SOL    HW1 1412   0.622   0.798   2.064
  252SOL    HW2 1413   0.520   0.762   2.186
  253SOL     OW 1414   1.281   0.345   2.806
  253SOL    HW1 1415   1.195   0.295   2.793
  253SOL    HW2 1416   1.343   0.291   2.862
  254SOL     OW 1417   1.576   1.662   2.169
  254SOL    HW1 1418   1.665   1.708   2.172
  254SOL    HW2 1419   1.555   1.638   2.074
  255SOL     OW 1420   0.807   0.605   3.327
  255SOL    HW1 1421   0.760   0.602   3.416
  255SOL    HW2 1422   0.756   0.550   3.261
  256SOL     OW 1423   1.394   0.469   3.536
  256SOL    HW1 1424   1.374   0.512   3.624
  256SOL    HW2 1425   1.472   0.407   3.545
  257SOL     OW 1426   0.973   0.890   3.434
  257SOL    HW1 1427   1.019   0.806   3.405
  257SOL    HW2 1428   0.917   0.924   3.359
  258SOL     OW 1429   0.991   0.410   3.104
  258SOL    HW1 1430   0.914   0.444   3.158
  258SOL    HW2 1431   0.957   0.359   3.025
  259SOL     OW 1432   1.041   0.701   2.291
  259SOL    HW1 1433   1.067   0.697   2.387
  259SOL    HW2 1434   0.956   0.650   2.277
  260SOL     OW 1435   0.076   0.811   2.651
  260SOL    HW1 1436   0.175   0.799   2.660
  260SOL    HW2 1437   0.052   0.906   2.672
  261SOL     OW 1438   0.130   1.821   3.433
  261SOL    HW1 1439   0.120   1.806   3.532
  261SOL    HW2 1440   0.044   1.857   3.397
  262SOL     OW 1441   0.865   0.348   2.057
  262SOL    HW1 1442   0.924   0.411   2.008
  262SOL    HW2 1443   0.884   0.254   2.028
  263SOL     OW 1444   1.719   0.585   3.693
  263SOL    HW1 1445   1.693   0.674   3.657
  263SOL    HW2 1446   1.717   0.517   3.620
  264SOL     OW 1447   1.362   1.144   2.407
  264SOL    HW1 1448   1.445   1.115   2.359
  264SOL    HW2 1449   1.313   1.211   2.351
  265SOL     OW 1450   0.550   0.196   2.747
  265SOL    HW1 1451   0.545   0.191   2.847
  265SOL    HW2 1452   0.552   0.292   2.718
  266SOL     OW 1453   1.008   1.456   2.339
  266SOL    HW1 1454   0.962   1.528   2.287
  266SOL    HW2 1455   1.004   1.476   2.437
  267SOL     OW 1456   0.351   1.801   2.715
  267SOL    HW1 1457   0.401   1.715   2.721
  267SOL    HW2 1458   0.416   1.878   2.712
  268SOL     OW 1459   1.795   1.066   2.735
  268SOL    HW1 1460   1.733   1.051   2.659
  268SOL    HW2 1461   1.743   1.077   2.820
  269SOL     OW 1462   1.227   1.550   3.368
  269SOL    HW1 1463   1.233   1.473   3.432
  269SOL    HW2 1464   1.175   1.524   3.288
  270SOL     OW 1465   0.321   0.943   2.104
  270SOL    HW1 1466   0.403   0.982   2.062
  270SOL    HW2 1467   0.294   0.861   2.055
  271SOL     OW 1468   1.458   0.735   2.590
  271SOL    HW1 1469   1.453   0.670   2.665
  271SOL    HW2 1470   1.538   0.794   2.603
  272SOL     OW 1471   0.461   1.266   3.589
  272SOL    HW1 1472   0.411   1.267   3.503
  272SOL    HW2 1473   0.398   1.248   3.665
  273SOL     OW 1474   1.111   1.776   2.099
  273SOL    HW1 1475   1.051   1.714   2.149
  273SOL    HW2 1476   1.142   1.732   2.014
  274SOL     OW 1477   0.202   0.285   3.360
  274SOL    HW1 1478   0.122   0.345   3.347
  274SOL    HW2 1479   0.192   0.236   3.446
  275SOL     OW 1480   1.632   1.377   1.943
  275SOL    HW1 1481   1.600   1.471   1.933
  275SOL    HW2 1482   1.556   1.314   1.931
  276SOL     OW 1483   0.464   1.743   2.185
  276SOL    HW1 1484   0.497   1.782   2.271
  276SOL    HW2 1485   0.540   1.736   2.120
  277SOL     OW 1486   1.400   0.107   2.288
  277SOL    HW1 1487   1.376   0.070   2.198
  277SOL    HW2 1488   1.499   0.123   2.292
  278SOL     OW 1489   0.249   1.785   3.103
  278SOL    HW1 1490   0.306   1.720   3.153
  278SOL    HW2 1491   0.233   1.752   3.010
  279SOL     OW 1492   0.940   1.698   2.766
  279SOL    HW1 1493   1.020   1.641   2.787
  279SOL    HW2 1494   0.891   1.658   2.689
  280SOL     OW 1495   0.382   0.700   2.342
  280SOL    HW1 1496   0.427   0.610   2.339
  280SOL    HW2 1497   0.288   0.689   2.375
  281SOL     OW 1498   1.547   0.222   3.591
  281SOL    HW1 1499   1.542   0.259   3.683
  281SOL    HW2 1500   1.475   0.153   3.579
  282SOL     OW 1501   0.614   0.122   1.979
  282SOL    HW1 1502   0.712   0.100   1.986
  282SOL    HW2 1503   0.583   0.105   1.886
  283SOL     OW 1504   0.781   0.264   3.611
  283SOL    HW1 1505   0.848   0.203   3.654
  283SOL    HW2 1506   0.708   0.283   3.676
  284SOL     OW 1507   0.888   1.514   3.057
  284SOL    HW1 1508   0.865   1.489   2.963
  284SOL    HW2 1509   0.949   1.445   3.096
  285SOL     OW 1510   1.351   0.590   3.295
  285SOL    HW1 1511   1.379   0.547   3.380
  285SOL    HW2 1512   1.376   0.686   3.296
  286SOL     OW 1513   0.803   1.402   2.786
  286SOL    HW1 1514   0.893   1.416   2.744
  286SOL    HW2 1515   0.732   1.404   2.715
  287SOL     OW 1516   0.922   0.503   2.761
  287SOL    HW1 1517   0.897   0.494   2.665
  287SOL    HW2 1518   0.970   0.421   2.792
  288SOL     OW 1519   0.539   0.064   2.374
  288SOL    HW1 1520   0.458   0.065   2.432
  288SOL    HW2 1521   0.542   0.147   2.319
  289SOL     OW 1522   1.434   1.188   1.903
  289SOL    HW1 1523   1.466   1.112   1.960
  289SOL    HW2 1524   1.342   1.215   1.933
  290SOL     OW 1525   0.297   0.035   2.033
  290SOL    HW1 1526   0.346   0.119   2.012
  290SOL    HW2 1527   0.359  -0.030   2.078
  291SOL     OW 1528   0.935   0.236   2.342
  291SOL    HW1 1529   0.887   0.277   2.264
  291SOL    HW2 1530   1.034   0.234   2.323
  292SOL     OW 1531   1.076   0.683   3.326
  292SOL    HW1 1532   0.996   0.622   3.329
  292SOL    HW2 1533   1.157   0.630   3.302
  293SOL     OW 1534   1.227   1.570   2.655
  293SOL    HW1 1535   1.248   1.644   2.590
  293SOL    HW2 1536   1.295   1.570   2.728
  294SOL     OW 1537   0.459   1.152   2.603
  294SOL    HW1 1538   0.388   1.125   2.668
  294SOL    HW2 1539   0.433   1.124   2.510
  295SOL     OW 1540   1.271   1.797   2.453
  295SOL    HW1 1541   1.315   1.861   2.389
  295SOL    HW2 1542   1.221   1.849   2.523
  296SOL     OW 1543   1.032   0.549   1.878
  296SOL    HW1 1544   0.991   0.631   1.839
  296SOL    HW2 1545   1.096   0.575   1.951
  297SOL     OW 1546   0.078   0.556   3.248
  297SOL    HW1 1547   0.170   0.555   3.207
  297SOL    HW2 1548   0.072   0.630   3.315
  298SOL     OW 1549   0.561   0.222   3.009
  298SOL    HW1 1550   0.599   0.138   3.046
  298SOL    HW2 1551   0.473   0.241   3.053
  299SOL     OW 1552   0.866   0.454   2.504
  299SOL    HW1 1553   0.834   0.526   2.442
  299SOL    HW2 1554   0.890   0.373   2.451
  300SOL     OW 1555   1.017   0.039   2.615
  300SOL    HW1 1556   0.945   0.044   2.546
  300SOL    HW2 1557   0.993  -0.030   2.684
  301SOL     OW 1558   1.429   1.173   2.729
  301SOL    HW1 1559   1.374   1.089   2.722
  301SOL    HW2 1560   1.455   1.202   2.637
  302SOL     OW 1561   1.466   0.590   2.854
  302SOL    HW1 1562   1.436   0.495   2.861
  302SOL    HW2 1563   1.539   0.606   2.920
  303SOL     OW 1564   1.857   0.833   2.239
  303SOL    HW1 1565   1.899   0.769   2.303
  303SOL    HW2 1566   1.819   0.782   2.161
  304SOL     OW 1567   0.488   1.385   2.036
  304SOL    HW1 1568   0.401   1.370   2.083
  304SOL    HW2 1569   0.471   1.411   1.941
  305SOL     OW 1570   1.664   1.280   2.519
  305SOL    HW1 1571   1.763   1.288   2.533
  305SOL    HW2 1572   1.619   1.364   2.550
  306SOL     OW 1573   1.390   0.575   1.940
  306SOL    HW1 1574   1.336   0.554   2.021
  306SOL    HW2 1575   1.481   0.534   1.949
  307SOL     OW 1576   0.527   0.256   2.190
  307SOL    HW1 1577   0.554   0.197   2.115
  307SOL    HW2 1578   0.527   0.351   2.159
  308SOL     OW 1579   1.754   1.223   3.450
  308SOL    HW1 1580   1.845   1.184   3.437
  308SOL    HW2 1581   1.762   1.319   3.474
  309SOL     OW 1582   1.064   1.347   3.202
  309SOL    HW1 1583   0.984   1.324   3.257
  309SOL    HW2 1584   1.147   1.321   3.251
  310SOL     OW 1585   1.592   1.629   3.487
  310SOL    HW1 1586   1.619   1.663   3.397
  310SOL    HW2 1587   1.671   1.591   3.533
  311SOL     OW 1588   1.111   1.195   2.962
  311SOL    HW1 1589   1.071   1.239   3.043
  311SOL    HW2 1590   1.070   1.232   2.879
  312SOL     OW 1591   1.638   1.099   2.941
  312SOL    HW1 1592   1.643   1.180   3.000
  312SOL    HW2 1593   1.552   1.101   2.890
  313SOL     OW 1594   0.915   0.089   3.264
  313SOL    HW1 1595   0.940   0.069   3.169
  313SOL    HW2 1596   0.987   0.145   3.306
  314SOL     OW 1597   0.980   1.116   3.581
  314SOL    HW1 1598   0.881   1.122   3.591
  314SOL    HW2 1599   1.003   1.036   3.525
  315SOL     OW 1600   0.705   1.050   2.230
  315SOL    HW1 1601   0.691   1.057   2.329
  315SOL    HW2 1602   0.789   0.999   2.212
  316SOL     OW 1603   0.410   0.813   3.113
  316SOL    HW1 1604   0.496   0.825   3.163
  316SOL    HW2 1605   0.368   0.726   3.140
  317SOL     OW 1606   1.274   0.386   3.124
  317SOL    HW1 1607   1.295   0.460   3.188
  317SOL    HW2 1608   1.185   0.403   3.081
  318SOL     OW 1609   0.064   1.564   3.193
  318SOL    HW1 1610   0.018   1.646   3.159
  318SOL    HW2 1611   0.162   1.583   3.202
  319SOL     OW 1612   0.367   1.100   2.363
  319SOL    HW1 1613   0.360   1.183   2.307
  319SOL    HW2 1614   0.371   1.020   2.303
  320SOL     OW 1615   0.566   0.537   2.727
  320SOL    HW1 1616   0.578   0.603   2.653
  320SOL    HW2 1617   0.612   0.571   2.810
  321SOL     OW 1618   1.252   1.348   2.250
  321SOL    HW1 1619   1.302   1.425   2.290
  321SOL    HW2 1620   1.157   1.350   2.282
  322SOL     OW 1621   1.272   1.445   3.004
  322SOL    HW1 1622   1.319   1.458   3.091
  322SOL    HW2 1623   1.206   1.371   3.013
  323SOL     OW 1624   1.582   0.639   2.334
  323SOL    HW1 1625   1.551   0.700   2.407
  323SOL    HW2 1626   1.632   0.691   2.265
  324SOL     OW 1627   0.354   1.510   3.191
  324SOL    HW1 1628   0.333   1.466   3.104
  324SOL    HW2 1629   0.451   1.536   3.194
  325SOL     OW 1630   0.402   0.751   3.460
  325SOL    HW1 1631   0.470   0.806   3.413
  325SOL    HW2 1632   0.442   0.663   3.487
  326SOL     OW 1633   1.587   0.779   3.532
  326SOL    HW1 1634   1.495   0.817   3.527
  326SOL    HW2 1635   1.647   0.826   3.467
  327SOL     OW 1636   1.013   0.105   3.632
  327SOL    HW1 1637   1.019   0.190   3.580
  327SOL    HW2 1638   1.045   0.029   3.575
  328SOL     OW 1639   0.504   0.050   3.602
  328SOL    HW1 1640   0.462  -0.007   3.532
  328SOL    HW2 1641   0.438   0.119   3.634
  329SOL     OW 1642   0.573   0.870   2.891
  329SOL    HW1 1643   0.617   0.959   2.882
  329SOL    HW2 1644   0.510   0.870   2.968
  330SOL     OW 1645   1.360   0.862   2.907
  330SOL    HW1 1646   1.285   0.862   2.841
  330SOL    HW2 1647   1.397   0.770   2.916
  331SOL     OW 1648   1.209   0.525   2.137
  331SOL    HW1 1649   1.222   0.441   2.191
  331SOL    HW2 1650   1.180   0.599   2.197
  332SOL     OW 1651   0.307   0.213   3.093
  332SOL    HW1 1652   0.284   0.250   3.183
  332SOL    HW2 1653   0.277   0.118   3.087
  333SOL     OW 1654   0.037   1.310   3.144
  333SOL    HW1 1655   0.090   1.261   3.212
  333SOL    HW2 1656   0.059   1.408   3.149
  334SOL     OW 1657   0.732   0.634   2.926
  334SOL    HW1 1658   0.791   0.608   2.850
  334SOL    HW2 1659   0.704   0.730   2.915
  335SOL     OW 1660   1.728   0.935   3.716
  335SOL    HW1 1661   1.682   0.928   3.627
  335SOL    HW2 1662   1.666   0.979   3.782
  336SOL     OW 1663   0.307   0.063   2.480
  336SOL    HW1 1664   0.296   0.157   2.513
  336SOL    HW2 1665   0.302   0.000   2.557
  337SOL     OW 1666   1.622   0.367   2.236
  337SOL    HW1 1667   1.624   0.291   2.300
  337SOL    HW2 1668   1.574   0.444   2.276
  338SOL     OW 1669   1.023   0.766   2.828
  338SOL    HW1 1670   1.038   0.787   2.924
  338SOL    HW2 1671   0.993   0.671   2.819
  339SOL     OW 1672   0.980   1.573   3.562
  339SOL    HW1 1673   0.960   1.617   3.474
  339SOL    HW2 1674   1.019   1.482   3.546
  340SOL     OW 1675   1.859   1.518   3.467
  340SOL    HW1 1676   1.873   1.545   3.372
  340SOL    HW2 1677   1.942   1.540   3.520
  341SOL     OW 1678   0.350   0.898   3.666
  341SOL    HW1 1679   0.426   0.942   3.714
  341SOL    HW2 1680   0.385   0.851   3.584
  342SOL     OW 1681   1.540   0.274   1.987
  342SOL    HW1 1682   1.479   0.199   2.010
  342SOL    HW2 1683   1.562   0.326   2.070
  343SOL     OW 1684   1.303   0.838   1.904
  343SOL    HW1 1685   1.337   0.745   1.919
  343SOL    HW2 1686   1.321   0.865   1.809
  344SOL     OW 1687   1.068   1.333   2.711
  344SOL    HW1 1688   1.075   1.249   2.656
  344SOL    HW2 1689   1.130   1.402   2.675
  345SOL     OW 1690   0.319   0.810   2.811
  345SOL    HW1 1691   0.412   0.846   2.816
  345SOL    HW2 1692   0.313   0.725   2.863
  346SOL     OW 1693   0.339   0.509   2.868
  346SOL    HW1 1694   0.287   0.426   2.851
  346SOL    HW2 1695   0.416   0.514   2.804
  347SOL     OW 1696   1.138   0.380   3.540
  347SOL    HW1 1697   1.093   0.443   3.604
  347SOL    HW2 1698   1.231   0.411   3.523
  348SOL     OW 1699   1.160   0.207   3.339
  348SOL    HW1 1700   1.160   0.271   3.416
  348SOL    HW2 1701   1.188   0.255   3.256
  349SOL     OW 1702   0.008   1.326   2.062
  349SOL    HW1 1703  -0.085   1.347   2.031
  349SOL    HW2 1704   0.018   1.227   2.075
  350SOL     OW 1705   0.088   1.801   2.789
  350SOL    HW1 1706   0.046   1.715   2.762
  350SOL    HW2 1707   0.182   1.804   2.755
  351SOL     OW 1708   0.504   1.568   2.772
  351SOL    HW1 1709   0.570   1.642   2.781
  351SOL    HW2 1710   0.548   1.489   2.730
  352SOL     OW 1711   1.002   0.796   3.100
  352SOL    HW1 1712   1.043   0.764   3.186
  352SOL    HW2 1713   0.906   0.769   3.097
  353SOL     OW 1714   0.040   0.544   2.976
  353SOL    HW1 1715   0.125   0.511   2.935
  353SOL    HW2 1716   0.053   0.559   3.074
  354SOL     OW 1717   0.189   0.520   3.584
  354SOL    HW1 1718   0.248   0.480   3.514
  354SOL    HW2 1719   0.131   0.591   3.543
  355SOL     OW 1720   1.369   0.950   3.522
  355SOL    HW1 1721   1.408   1.039   3.542
  355SOL    HW2 1722   1.379   0.930   3.425
  356SOL     OW 1723   0.815   0.572   2.187
  356SOL    HW1 1724   0.822   0.483   2.141
  356SOL    HW2 1725   0.721   0.606   2.179
  357SOL     OW 1726   1.657   0.604   3.068
  357SOL    HW1 1727   1.619   0.535   3.130
  357SOL    HW2 1728   1.739   0.568   3.024
  358SOL     OW 1729   0.252   1.564   3.606
  358SOL    HW1 1730   0.222   1.621   3.682
  358SOL    HW2 1731   0.245   1.467   3.632
  359SOL     OW 1732   0.671   0.464   3.131
  359SOL    HW1 1733   0.637   0.375   3.101
  359SOL    HW2 1734   0.697   0.518   3.051
  360SOL     OW 1735   0.930   1.678   3.327
  360SOL    HW1 1736   0.906   1.660   3.232
  360SOL    HW2 1737   0.960   1.772   3.337
  361SOL     OW 1738   0.473   0.500   2.053
  361SOL    HW1 1739   0.534   0.580   2.057
  361SOL    HW2 1740   0.378   0.531   2.060
  362SOL     OW 1741   0.159   1.137   3.328
  362SOL    HW1 1742   0.181   1.076   3.404
  362SOL    HW2 1743   0.169   1.088   3.242
  363SOL     OW 1744   1.347   1.059   3.096
  363SOL    HW1 1745   1.371   0.996   3.022
  363SOL    HW2 1746   1.257   1.099   3.078
  364SOL     OW 1747   1.302   0.855   2.171
  364SOL    HW1 1748   1.216   0.824   2.213
  364SOL    HW2 1749   1.298   0.841   2.072
  365SOL     OW 1750   1.759   1.747   3.016
  365SOL    HW1 1751   1.820   1.777   2.943
  365SOL    HW2 1752   1.721   1.658   2.994
  366SOL     OW 1753   1.252   1.731   2.990
  366SOL    HW1 1754   1.336   1.736   2.936
  366SOL    HW2 1755   1.229   1.635   3.008
  367SOL     OW 1756   0.083   1.258   2.884
  367SOL    HW1 1757   0.078   1.257   2.984
  367SOL    HW2 1758   0.000   1.217   2.846
  368SOL     OW 1759   0.688   1.662   3.578
  368SOL    HW1 1760   0.632   1.743   3.587
  368SOL    HW2 1761   0.740   1.666   3.492
  369SOL     OW 1762   1.726   0.135   2.385
  369SOL    HW1 1763   1.799   0.118   2.318
  369SOL    HW2 1764   1.695   0.048   2.423
  370SOL     OW 1765   1.388   1.573   2.339
  370SOL    HW1 1766   1.455   1.585   2.265
  370SOL    HW2 1767   1.348   1.662   2.362
  371SOL     OW 1768   0.130   1.794   3.713
  371SOL    HW1 1769   0.089   1.720   3.766
  371SOL    HW2 1770   0.194   1.845   3.771
  372SOL     OW 1771   1.280   0.927   2.534
  372SOL    HW1 1772   1.340   0.846   2.536
  372SOL    HW2 1773   1.320   0.996   2.474
  373SOL     OW 1774   0.830   1.273   3.284
  373SOL    HW1 1775   0.825   1.306   3.379
  373SOL    HW2 1776   0.744   1.292   3.238
  374SOL     OW 1777   0.672   1.616   2.016
  374SOL    HW1 1778   0.681   1.626   1.917
  374SOL    HW2 1779   0.632   1.527   2.037
  375SOL     OW 1780   1.650   1.720   3.256
  375SOL    HW1 1781   1.703   1.730   3.172
  375SOL    HW2 1782   1.623   1.810   3.290
  376SOL     OW 1783   1.841   0.175   2.825
  376SOL    HW1 1784   1.880   0.090   2.789
  376SOL    HW2 1785   1.743   0.177   2.806
  377SOL     OW 1786   0.263   0.326   2.582
  377SOL    HW1 1787   0.184   0.377   2.548
  377SOL    HW2 1788   0.254   0.311   2.680
  378SOL     OW 1789   1.194   1.612   1.893
  378SOL    HW1 1790   1.200   1.519   1.930
  378SOL    HW2 1791   1.135   1.612   1.813
  379SOL     OW 1792   0.822   1.002   3.234
  379SOL    HW1 1793   0.862   1.001   3.142
  379SOL    HW2 1794   0.832   1.094   3.274
  380SOL     OW 1795   0.916   0.910   2.153
  380SOL    HW1 1796   0.979   0.948   2.085
  380SOL    HW2 1797   0.956   0.827   2.192
  381SOL     OW 1798   1.504   1.607   1.906
  381SOL    HW1 1799   1.412   1.644   1.913
  381SOL    HW2 1800   1.542   1.627   1.816
  382SOL     OW 1801   0.372   1.288   3.352
  382SOL    HW1 1802   0.359   1.381   3.318
  382SOL    HW2 1803   0.288   1.236   3.339
  383SOL     OW 1804   1.614   1.292   3.151
  383SOL    HW1 1805   1.674   1.295   3.231
  383SOL    HW2 1806   1.539   1.356   3.164
  384SOL     OW 1807   1.039   1.098   2.558
  384SOL    HW1 1808   0.969   1.051   2.612
  384SOL    HW2 1809   1.098   1.030   2.515
  385SOL     OW 1810   1.014   0.236   2.833
  385SOL    HW1 1811   1.006   0.200   2.740
  385SOL    HW2 1812   1.012   0.160   2.898
  386SOL     OW 1813   0.590   1.487   2.353
  386SOL    HW1 1814   0.632   1.429   2.283
  386SOL    HW2 1815   0.546   1.566   2.309
  387SOL     OW 1816   1.709   0.385   3.243
  387SOL    HW1 1817   1.782   0.454   3.247
  387SOL    HW2 1818   1.737   0.310   3.184
  388SOL     OW 1819   0.255   1.348   2.152
  388SOL    HW1 1820   0.159   1.349   2.125
  388SOL    HW2 1821   0.267   1.401   2.236
  389SOL     OW 1822   0.105   1.013   3.588
  389SOL    HW1 1823   0.028   0.980   3.642
  389SOL    HW2 1824   0.190   0.983   3.630
  390SOL     OW 1825   0.672   0.203   3.351
  390SOL    HW1 1826   0.762   0.187   3.311
  390SOL    HW2 1827   0.680   0.208   3.450
  391SOL     OW 1828   0.075   0.345   1.895
  391SOL    HW1 1829  -0.017   0.317   1.866
  391SOL    HW2 1830   0.106   0.422   1.839
  392SOL     OW 1831   1.440   0.856   3.260
  392SOL    HW1 1832   1.383   0.908   3.197
  392SOL    HW2 1833   1.536   0.868   3.236
  393SOL     OW 1834   0.072   0.166   2.180
  393SOL    HW1 1835   0.055   0.249   2.126
  393SOL    HW2 1836   0.162   0.129   2.158
  394SOL     OW 1837   1.183   1.335   1.981
  394SOL    HW1 1838   1.084   1.324   1.983
  394SOL    HW2 1839   1.217   1.350   2.074
  395SOL     OW 1840   0.613   0.842   3.293
  395SOL    HW1 1841   0.669   0.923   3.276
  395SOL    HW2 1842   0.672   0.762   3.296
  396SOL     OW 1843   1.493   1.767   2.821
  396SOL    HW1 1844   1.526   1.831   2.752
  396SOL    HW2 1845   1.559   1.761   2.896
  397SOL     OW 1846   0.716   0.565   3.570
  397SOL    HW1 1847   0.735   0.630   3.644
  397SOL    HW2 1848   0.776   0.485   3.579
  398SOL     OW 1849   1.450   1.220   3.495
  398SOL    HW1 1850   1.441   1.210   3.594
  398SOL    HW2 1851   1.546   1.213   3.469
  399SOL     OW 1852   0.390   1.741   3.422
  399SOL    HW1 1853   0.299   1.782   3.420
  399SOL    HW2 1854   0.383   1.647   3.454
  400SOL     OW 1855   1.674   0.883   3.116
  400SOL    HW1 1856   1.647   0.794   3.079
  400SOL    HW2 1857   1.675   0.951   3.043
  401SOL     OW 1858   1.225   0.325   2.311
  401SOL    HW1 1859   1.290   0.251   2.300
  401SOL    HW2 1860   1.245   0.375   2.395
  402SOL     OW 1861   0.594   0.745   2.514
  402SOL    HW1 1862   0.644   0.830   2.495
  402SOL    HW2 1863   0.506   0.747   2.466
  403SOL     OW 1864   1.777   0.342   3.504
  403SOL    HW1 1865   1.760   0.373   3.410
  403SOL    HW2 1866   1.693   0.305   3.542
  404SOL     OW 1867   1.730   0.934   3.379
  404SOL    HW1 1868   1.768   1.025   3.394
  404SOL    HW2 1869   1.722   0.917   3.280
  405SOL     OW 1870   0.859   1.374   1.878
  405SOL    HW1 1871   0.813   1.389   1.966
  405SOL    HW2 1872   0.903   1.459   1.848
  406SOL     OW 1873   0.661   1.790   2.815
  406SOL    HW1 1874   0.615   1.878   2.802
  406SOL    HW2 1875   0.760   1.802   2.808
  407SOL     OW 1876   0.859   0.956   2.723
  407SOL    HW1 1877   0.913   0.887   2.771
  407SOL    HW2 1878   0.827   1.025   2.789
  408SOL     OW 1879   1.083   0.984   1.949
  408SOL    HW1 1880   1.060   1.037   1.867
  408SOL    HW2 1881   1.164   0.928   1.930
  409SOL     OW 1882   1.861   1.569   2.713
  409SOL    HW1 1883   1.790   1.557   2.643
  409SOL    HW2 1884   1.862   1.490   2.773
  410SOL     OW 1885   0.221   1.314   3.706
  410SOL    HW1 1886   0.156   1.241   3.685
  410SOL    HW2 1887   0.225   1.328   3.804
  411SOL     OW 1888   0.079   1.240   2.515
  411SOL    HW1 1889   0.078   1.193   2.603
  411SOL    HW2 1890   0.161   1.212   2.464
  412SOL     OW 1891   0.672   1.391   3.486
  412SOL    HW1 1892   0.594   1.341   3.524
  412SOL    HW2 1893   0.669   1.486   3.517
  413SOL     OW 1894   1.824   0.192   3.089
  413SOL    HW1 1895   1.820   0.102   3.133
  413SOL    HW2 1896   1.827   0.181   2.990
  414SOL     OW 1897   0.428   0.424   2.382
  414SOL    HW1 1898   0.458   0.352   2.320
  414SOL    HW2 1899   0.389   0.384   2.465
  415SOL     OW 1900   1.705   1.487   2.966
  415SOL    HW1 1901   1.612   1.462   2.939
  415SOL    HW2 1902   1.731   1.437   3.048
  416SOL     OW 1903   0.317   0.547   3.142
  416SOL    HW1 1904   0.355   0.488   3.214
  416SOL    HW2 1905   0.357   0.521   3.054
  417SOL     OW 1906   0.812   1.586   2.549
  417SOL    HW1 1907   0.844   1.596   2.455
  417SOL    HW2 1908   0.733   1.524   2.551
  418SOL     OW 1909   1.424   0.214   2.974
  418SOL    HW1 1910   1.476   0.149   3.029
  418SOL    HW2 1911   1.375   0.277   3.035
  419SOL     OW 1912   1.001   0.034   3.016
  419SOL    HW1 1913   0.938  -0.038   2.985
  419SOL    HW2 1914   1.094  -0.002   3.016
  420SOL     OW 1915   0.770   1.330   2.163
  420SOL    HW1 1916   0.724   1.243   2.180
  420SOL    HW2 1917   0.861   1.327   2.204
  421SOL     OW 1918   0.618   1.567   3.146
  421SOL    HW1 1919   0.613   1.649   3.203
  421SOL    HW2 1920   0.707   1.564   3.101
  422SOL     OW 1921   1.352   0.052   2.030
  422SOL    HW1 1922   1.387   0.011   1.946
  422SOL    HW2 1923   1.262   0.014   2.050
  423SOL     OW 1924   1.300   0.453   2.553
  423SOL    HW1 1925   1.241   0.533   2.557
  423SOL    HW2 1926   1.315   0.418   2.646
  424SOL     OW 1927   1.593   0.221   2.744
  424SOL    HW1 1928   1.509   0.220   2.798
  424SOL    HW2 1929   1.595   0.304   2.688
  425SOL     OW 1930   0.039   1.077   2.162
  425SOL    HW1 1931   0.138   1.066   2.153
  425SOL    HW2 1932  -0.001   0.991   2.194
  426SOL     OW 1933   0.875   1.646   2.199
  426SOL    HW1 1934   0.798   1.611   2.145
  426SOL    HW2 1935   0.843   1.717   2.261
  427SOL     OW 1936   0.230   0.628   3.837
  427SOL    HW1 1937   0.137   0.626   3.874
  427SOL    HW2 1938   0.231   0.589   3.745
  428SOL     OW 1939   0.225   0.275   4.720
  428SOL    HW1 1940   0.260   0.258   4.812
  428SOL    HW2 1941   0.137   0.230   4.708
  429SOL     OW 1942   0.019   0.368   4.371
  429SOL    HW1 1943  -0.063   0.411   4.410
  429SOL    HW2 1944  -0.009   0.295   4.308
  430SOL     OW 1945   0.569   1.275   4.889
  430SOL    HW1 1946   0.476   1.268   4.852
  430SOL    HW2 1947   0.580   1.364   4.933
  431SOL     OW 1948   1.555   1.511   4.427
  431SOL    HW1 1949   1.498   1.495   4.508
  431SOL    HW2 1950   1.496   1.521   4.347
  432SOL     OW 1951   1.135   0.703   4.441
  432SOL    HW1 1952   1.192   0.781   4.416
  432SOL    HW2 1953   1.075   0.729   4.517
  433SOL     OW 1954   1.755   0.607   3.955
  433SOL    HW1 1955   1.743   0.594   3.856
  433SOL    HW2 1956   1.725   0.526   4.004
  434SOL     OW 1957   0.768   1.144   4.747
  434SOL    HW1 1958   0.690   1.161   4.807
  434SOL    HW2 1959   0.802   1.231   4.711
  435SOL     OW 1960   0.850   0.798   5.547
  435SOL    HW1 1961   0.846   0.874   5.612
  435SOL    HW2 1962   0.872   0.834   5.456
  436SOL     OW 1963   0.685   1.012   4.389
  436SOL    HW1 1964   0.754   0.996   4.459
  436SOL    HW2 1965   0.612   1.069   4.427
  437SOL     OW 1966   0.686   1.161   5.527
  437SOL    HW1 1967   0.746   1.240   5.541
  437SOL    HW2 1968   0.600   1.192   5.486
  438SOL     OW 1969   0.335   1.435   4.785
  438SOL    HW1 1970   0.257   1.404   4.732
  438SOL    HW2 1971   0.393   1.493   4.728
  439SOL     OW 1972   1.460   1.505   5.063
  439SOL    HW1 1973   1.484   1.599   5.089
  439SOL    HW2 1974   1.444   1.451   5.145
  440SOL     OW 1975   0.438   0.392   5.223
  440SOL    HW1 1976   0.520   0.336   5.232
  440SOL    HW2 1977   0.357   0.334   5.227
  441SOL     OW 1978   1.603   0.447   4.461
  441SOL    HW1 1979   1.529   0.493   4.411
  441SOL    HW2 1980   1.654   0.515   4.514
  442SOL     OW 1981   0.231   1.713   4.207
  442SOL    HW1 1982   0.265   1.790   4.261
  442SOL    HW2 1983   0.275   1.713   4.117
  443SOL     OW 1984   1.127   1.341   5.414
  443SOL    HW1 1985   1.174   1.341   5.502
  443SOL    HW2 1986   1.079   1.254   5.403
  444SOL     OW 1987   0.230   1.434   4.262
  444SOL    HW1 1988   0.204   1.530   4.262
  444SOL    HW2 1989   0.159   1.380   4.307
  445SOL     OW 1990   0.240   1.091   4.610
  445SOL    HW1 1991   0.254   1.007   4.662
  445SOL    HW2 1992   0.185   1.155   4.665
  446SOL     OW 1993   0.620   1.786   5.163
  446SOL    HW1 1994   0.528   1.769   5.198
  446SOL    HW2 1995   0.648   1.878   5.189
  447SOL     OW 1996   0.606   0.964   3.847
  447SOL    HW1 1997   0.613   1.048   3.793
  447SOL    HW2 1998   0.652   0.977   3.935
  448SOL     OW 1999   1.594   0.114   5.204
  448SOL    HW1 2000   1.576   0.181   5.132
  448SOL    HW2 2001   1.591   0.160   5.293
  449SOL     OW 2002   0.122   0.643   4.287
  449SOL    HW1 2003   0.077   0.555   4.304
  449SOL    HW2 2004   0.121   0.697   4.371
  450SOL     OW 2005   1.842   1.767   4.083
  450SOL    HW1 2006   1.896   1.738   4.163
  450SOL    HW2 2007   1.872   1.857   4.054
  451SOL     OW 2008   0.027   1.596   3.841
  451SOL    HW1 2009   0.008   1.500   3.862
  451SOL    HW2 2010  -0.006   1.654   3.916
  452SOL     OW 2011   1.689   0.922   4.336
  452SOL    HW1 2012   1.784   0.893   4.344
  452SOL    HW2 2013   1.681   0.987   4.261
  453SOL     OW 2014   1.641   1.108   4.156
  453SOL    HW1 2015   1.727   1.110   4.104
  453SOL    HW2 2016   1.655   1.155   4.244
  454SOL     OW 2017   0.113   0.737   5.321
  454SOL    HW1 2018   0.201   0.724   5.366
  454SOL    HW2 2019   0.100   0.834   5.299
  455SOL     OW 2020   0.613   1.365   4.450
  455SOL    HW1 2021   0.564   1.278   4.459
  455SOL    HW2 2022   0.590   1.408   4.363
  456SOL     OW 2023   1.293   1.228   5.147
  456SOL    HW1 2024   1.330   1.155   5.089
  456SOL    HW2 2025   1.345   1.233   5.232
  457SOL     OW 2026   0.809   0.004   4.226
  457SOL    HW1 2027   0.849   0.095   4.217
  457SOL    HW2 2028   0.709   0.012   4.232
  458SOL     OW 2029   0.197   0.976   4.988
  458SOL    HW1 2030   0.286   0.931   4.974
  458SOL    HW2 2031   0.124   0.911   4.969
  459SOL     OW 2032   1.525   0.999   3.914
  459SOL    HW1 2033   1.462   0.923   3.927
  459SOL    HW2 2034   1.573   1.017   4.000
  460SOL     OW 2035   1.187   1.792   5.340
  460SOL    HW1 2036   1.211   1.852   5.264
  460SOL    HW2 2037   1.194   1.697   5.310
  461SOL     OW 2038   0.317   0.251   5.525
  461SOL    HW1 2039   0.388   0.322   5.531
  461SOL    HW2 2040   0.229   0.290   5.553
  462SOL     OW 2041   1.466   1.417   4.677
  462SOL    HW1 2042   1.407   1.423   4.757
  462SOL    HW2 2043   1.451   1.329   4.631
  463SOL     OW 2044   1.667   1.714   4.296
  463SOL    HW1 2045   1.626   1.691   4.208
  463SOL    HW2 2046   1.649   1.640   4.361
  464SOL     OW 2047   0.598   0.729   3.994
  464SOL    HW1 2048   0.622   0.798   3.926
  464SOL    HW2 2049   0.520   0.762   4.048
  465SOL     OW 2050   1.281   0.345   4.668
  465SOL    HW1 2051   1.195   0.295   4.655
  465SOL    HW2 2052   1.343   0.291   4.724
  466SOL     OW 2053   1.576   1.662   4.031
  466SOL    HW1 2054   1.665   1.708   4.034
  466SOL    HW2 2055   1.555   1.638   3.936
  467SOL     OW 2056   0.807   0.605   5.189
  467SOL    HW1 2057   0.760   0.602   5.278
  467SOL    HW2 2058   0.756   0.550   5.123
  468SOL     OW 2059   1.394   0.469   5.398
  468SOL    HW1 2060   1.374   0.512   5.486
  468SOL    HW2 2061   1.472   0.407   5.407
  469SOL     OW 2062   0.973   0.890   5.296
  469SOL    HW1 2063   1.019   0.806   5.267
  469SOL    HW2 2064   0.917   0.924   5.221
  470SOL     OW 2065   0.991   0.410   4.966
  470SOL    HW1 2066   0.914   0.444   5.020
  470SOL    HW2 2067   0.957   0.359   4.887
  471SOL     OW 2068   1.041   0.701   4.153
  471SOL    HW1 2069   1.067   0.697   4.249
  471SOL    HW2 2070   0.956   0.650   4.139
  472SOL     OW 2071   0.076   0.811   4.513
  472SOL    HW1 2072   0.175   0.799   4.522
  472SOL    HW2 2073   0.052   0.906   4.534
  473SOL     OW 2074   0.130   1.821   5.295
  473SOL    HW1 2075   0.120   1.806   5.394
  473SOL    HW2 2076   0.044   1.857   5.259
  474SOL     OW 2077   0.865   0.348   3.919
  474SOL    HW1 2078   0.924   0.411   3.870
  474SOL    HW2 2079   0.884   0.254   3.890
  475SOL     OW 2080   1.719   0.585   5.555
  475SOL    HW1 2081   1.693   0.674   5.519
  475SOL    HW2 2082   1.717   0.517   5.482
  476SOL     OW 2083   1.362   1.144   4.269
  476SOL    HW1 2084   1.445   1.115   4.221
  476SOL    HW2 2085   1.313   1.211   4.213
  477SOL     OW 2086   0.550   0.196   4.609
  477SOL    HW1 2087   0.545   0.191   4.709
  477SOL    HW2 2088   0.552   0.292   4.580
  478SOL     OW 2089   1.008   1.456   4.201
  478SOL    HW1 2090   0.962   1.528   4.149
  478SOL    HW2 2091   1.004   1.476   4.299
  479SOL     OW 2092   0.351   1.801   4.577
  479SOL    HW1 2093   0.401   1.715   4.583
  479SOL    HW2 2094   0.416   1.878   4.574
  480SOL     OW 2095   1.795   1.066   4.597
  480SOL    HW1 2096   1.733   1.051   4.521
  480SOL    HW2 2097   1.743   1.077   4.682
  481SOL     OW 2098   1.227   1.550   5.230
  481SOL    HW1 2099   1.233   1.473   5.294
  481SOL    HW2 2100   1.175   1.524   5.150
  482SOL     OW 2101   0.321   0.943   3.966
  482SOL    HW1 2102   0.403   0.982   3.924
  482SOL    HW2 2103   0.294   0.861   3.917
  483SOL     OW 2104   1.458   0.735   4.452
  483SOL    HW1 2105   1.453   0.670   4.527
  483SOL    HW2 2106   1.538   0.794   4.465
  484SOL     OW 2107   0.461   1.266   5.451
  484SOL    HW1 2108   0.411   1.267   5.365
  484SOL    HW2 2109   0.398   1.248   5.527
  485SOL     OW 2110   1.111   1.776   3.961
  485SOL    HW1 2111   1.051   1.714   4.011
  485SOL    HW2 2112   1.142   1.732   3.876
  486SOL     OW 2113   0.202   0.285   5.222
  486SOL    HW1 2114   0.122   0.345   5.209
  486SOL    HW2 2115   0.192   0.236   5.308
  487SOL     OW 2116   1.632   1.377   3.805
  487SOL    HW1 2117   1.600   1.471   3.795
  487SOL    HW2 2118   1.556   1.314   3.793
  488SOL     OW 2119   0.464   1.743   4.047
  488SOL    HW1 2120   0.497   1.782   4.133
  488SOL    HW2 2121   0.540   1.736   3.982
  489SOL     OW 2122   1.400   0.107   4.150
  489SOL    HW1 2123   1.376   0.070   4.060
  489SOL    HW2 2124   1.499   0.123   4.154
  490SOL     OW 2125   0.249   1.785   4.965
  490SOL    HW1 2126   0.306   1.720   5.015
  490SOL    HW2 2127   0.233   1.752   4.872
  491SOL     OW 2128   0.940   1.698   4.628
  491SOL    HW1 2129   1.020   1.641   4.649
  491SOL    HW2 2130   0.891   1.658   4.551
  492SOL     OW 2131   0.382   0.700   4.204
  492SOL    HW1 2132   0.427   0.610   4.201
  492SOL    HW2 2133   0.288   0.689   4.237
  493SOL     OW 2134   1.547   0.222   5.453
  493SOL    HW1 2135   1.542   0.259   5.545
  493SOL    HW2 2136   1.475   0.153   5.441
  494SOL     OW 2137   0.614   0.122   3.841
  494SOL    HW1 2138   0.712   0.100   3.848
  494SOL    HW2 2139   0.583   0.105   3.748
  495SOL     OW 2140   0.781   0.264   5.473
  495SOL    HW1 2141   0.848   0.203   5.516
  495SOL    HW2 2142   0.708   0.283   5.538
  496SOL     OW 2143   0.888   1.514   4.919
  496SOL    HW1 2144   0.865   1.489   4.825
  496SOL    HW2 2145   0.949   1.445   4.958
  497SOL     OW 2146   1.351   0.590   5.157
  497SOL    HW1 2147   1.379   0.547   5.242
  497SOL    HW2 2148   1.376   0.686   5.158
  498SOL     OW 2149   0.803   1.402   4.648
  498SOL    HW1 2150   0.893   1.416   4.606
  498SOL    HW2 2151   0.732   1.404   4.577
  499SOL     OW 2152   0.922   0.503   4.623
  499SOL    HW1 2153   0.897   0.494   4.527
  499SOL    HW2 2154   0.970   0.421   4.654
  500SOL     OW 2155   0.539   0.064   4.236
  500SOL    HW1 2156   0.458   0.065   4.294
  500SOL    HW2 2157   0.542   0.147   4.181
  501SOL     OW 2158   1.434   1.188   3.765
  501SOL    HW1 2159   1.466   1.112   3.822
  501SOL    HW2 2160   1.342   1.215   3.795
  502SOL     OW 2161   0.297   0.035   3.895
  502SOL    HW1 2162   0.346   0.119   3.874
  502SOL    HW2 2163   0.359  -0.030   3.940
  503SOL     OW 2164   0.935   0.236   4.204
  503SOL    HW1 2165   0.887   0.277   4.126
  503SOL    HW2 2166   1.034   0.234   4.185
  504SOL     OW 2167   1.076   0.683   5.188
  504SOL    HW1 2168   0.996   0.622   5.191
  504SOL    HW2 2169   1.157   0.630   5.164
  505SOL     OW 2170   1.227   1.570   4.517
  505SOL    HW1 2171   1.248   1.644   4.452
  505SOL    HW2 2172   1.295   1.570   4.590
  506SOL     OW 2173   0.459   1.152   4.465
  506SOL    HW1 2174   0.388   1.125   4.530
  506SOL    HW2 2175   0.433   1.124   4.372
  507SOL     OW 2176   1.271   1.797   4.315
  507SOL    HW1 2177   1.315   1.861   4.251
  507SOL    HW2 2178   1.221   1.849   4.385
  508SOL     OW 2179   1.032   0.549   3.740
  508SOL    HW1 2180   0.991   0.631   3.701
  508SOL    HW2 2181   1.096   0.575   3.813
  509SOL     OW 2182   0.078   0.556   5.110
  509SOL    HW1 2183   0.170   0.555   5.069
  509SOL    HW2 2184   0.072   0.630   5.177
  510SOL     OW 2185   0.561   0.222   4.871
  510SOL    HW1 2186   0.599   0.138   4.908
  510SOL    HW2 2187   0.473   0.241   4.915
  511SOL     OW 2188   0.866   0.454   4.366
  511SOL    HW1 2189   0.834   0.526   4.304
  511SOL    HW2 2190   0.890   0.373   4.313
  512SOL     OW 2191   1.017   0.039   4.477
  512SOL    HW1 2192   0.945   0.044   4.408
  512SOL    HW2 2193   0.993  -0.030   4.546
  513SOL     OW 2194   1.429   1.173   4.591
  513SOL    HW1 2195   1.374   1.089   4.584
  513SOL    HW2 2196   1.455   1.202   4.499
  514SOL     OW 2197   1.466   0.590   4.716
  514SOL    HW1 2198   1.436   0.495   4.723
  514SOL    HW2 2199   1.539   0.606   4.782
  515SOL     OW 2200   1.857   0.833   4.101
  515SOL    HW1 2201   1.899   0.769   4.165
  515SOL    HW2 2202   1.819   0.782   4.023
  516SOL     OW 2203   0.488   1.385   3.898
  516SOL    HW1 2204   0.401   1.370   3.945
  516SOL    HW2 2205   0.471   1.411   3.803
  517SOL     OW 2206   1.664   1.280   4.381
  517SOL    HW1 2207   1.763   1.288   4.395
  517SOL    HW2 2208   1.619   1.364   4.412
  518SOL     OW 2209   1.390   0.575   3.802
  518SOL    HW1 2210   1.336   0.554   3.883
  518SOL    HW2 2211   1.481   0.534   3.811
  519SOL     OW 2212   0.527   0.256   4.052
  519SOL    HW1 2213   0.554   0.197   3.977
  519SOL    HW2 2214   0.527   0.351   4.021
  520SOL     OW 2215   1.754   1.223   5.312
  520SOL    HW1 2216   1.845   1.184   5.299
  520SOL    HW2 2217   1.762   1.319   5.336
  521SOL     OW 2218   1.064   1.347   5.064
  521SOL    HW1 2219   0.984   1.324   5.119
  521SOL    HW2 2220   1.147   1.321   5.113
  522SOL     OW 2221   1.592   1.629   5.349
  522SOL    HW1 2222   1.619   1.663   5.259
  522SOL    HW2 2223   1.671   1.591   5.395
  523SOL     OW 2224   1.111   1.195   4.824
  523SOL    HW1 2225   1.071   1.239   4.905
  523SOL    HW2 2226   1.070   1.232   4.741
  524SOL     OW 2227   1.638   1.099   4.803
  524SOL    HW1 2228   1.643   1.180   4.862
  524SOL    HW2 2229   1.552   1.101   4.752
  525SOL     OW 2230   0.915   0.089   5.126
  525SOL    HW1 2231   0.940   0.069   5.031
  525SOL    HW2 2232   0.987   0.145   5.168
  526SOL     OW 2233   0.980   1.116   5.443
  526SOL    HW1 2234   0.881   1.122   5.453
  526SOL    HW2 2235   1.003   1.036   5.387
  527SOL     OW 2236   0.705   1.050   4.092
  527SOL    HW1 2237   0.691   1.057   4.191
  527SOL    HW2 2238   0.789   0.999   4.074
  528SOL     OW 2239   0.410   0.813   4.975
  528SOL    HW1 2240   0.496   0.825   5.025
  528SOL    HW2 2241   0.368   0.726   5.002
  529SOL     OW 2242   1.274   0.386   4.986
  529SOL    HW1 2243   1.295   0.460   5.050
  529SOL    HW2 2244   1.185   0.403   4.943
  530SOL     OW 2245   0.064   1.564   5.055
  530SOL    HW1 2246   0.018   1.646   5.021
  530SOL    HW2 2247   0.162   1.583   5.064
  531SOL     OW 2248   0.367   1.100   4.225
  531SOL    HW1 2249   0.360   1.183   4.169
  531SOL    HW2 2250   0.371   1.020   4.165
  532SOL     OW 2251   0.566   0.537   4.589
  532SOL    HW1 2252   0.578   0.603   4.515
  532SOL    HW2 2253   0.612   0.571   4.672
  533SOL     OW 2254   1.252   1.348   4.112
  533SOL    HW1 2255   1.302   1.425   4.152
  533SOL    HW2 2256   1.157   1.350   4.144
  534SOL     OW 2257   1.272   1.445   4.866
  534SOL    HW1 2258   1.319   1.458   4.953
  534SOL    HW2 2259   1.206   1.371   4.875
  535SOL     OW 2260   1.582   0.639   4.196
  535SOL    HW1 2261   1.551   0.700   4.269
  535SOL    HW2 2262   1.632   0.691   4.127
  536SOL     OW 2263   0.354   1.510   5.053
  536SOL    HW1 2264   0.333   1.466   4.966
  536SOL    HW2 2265   0.451   1.536   5.056
  537SOL     OW 2266   0.402   0.751   5.322
  537SOL    HW1 2267   0.470   0.806   5.275
  537SOL    HW2 2268   0.442   0.663   5.349
  538SOL     OW 2269   1.587   0.779   5.394
  538SOL    HW1 2270   1.495   0.817   5.389
  538SOL    HW2 2271   1.647   0.826   5.329
  539SOL     OW 2272   1.013   0.105   5.494
  539SOL    HW1 2273   1.019   0.190   5.442
  539SOL    HW2 2274   1.045   0.029   5.437
  540SOL     OW 2275   0.504   0.050   5.464
  540SOL    HW1 2276   0.462  -0.007   5.394
  540SOL    HW2 2277   0.438   0.119   5.496
  541SOL     OW 2278   0.573   0.870   4.753
  541SOL    HW1 2279   0.617   0.959   4.744
  541SOL    HW2 2280   0.510   0.870   4.830
  542SOL     OW 2281   1.360   0.862   4.769
  542SOL    HW1 2282   1.285   0.862   4.703
  542SOL    HW2 2283   1.397   0.770   4.778
  543SOL     OW 2284   1.209   0.525   3.999
  543SOL    HW1 2285   1.222   0.441   4.053
  543SOL    HW2 2286   1.180   0.599   4.059
  544SOL     OW 2287   0.307   0.213   4.955
  544SOL    HW1 2288   0.284   0.250   5.045
  544SOL    HW2 2289   0.277   0.118   4.949
  545SOL     OW 2290   0.037   1.310   5.006
  545SOL    HW1 2291   0.090   1.261   5.074
  545SOL    HW2 2292   0.059   1.408   5.011
  546SOL     OW 2293   0.732   0.634   4.788
  546SOL    HW1 2294   0.791   0.608   4.712
  546SOL    HW2 2295   0.704   0.730   4.777
  547SOL     OW 2296   1.728   0.935   5.578
  547SOL    HW1 2297   1.682   0.928   5.489
  547SOL    HW2 2298   1.666   0.979   5.644
  548SOL     OW 2299   0.307   0.063   4.342
  548SOL    HW1 2300   0.296   0.157   4.375
  548SOL    HW2 2301   0.302   0.000   4.419
  549SOL     OW 2302   1.622   0.367   4.098
  549SOL    HW1 2303   1.624   0.291   4.162
  549SOL    HW2 2304   1.574   0.444   4.138
  550SOL     OW 2305   1.023   0.766   4.690
  550SOL    HW1 2306   1.038   0.787   4.786
  550SOL    HW2 2307   0.993   0.671   4.681
  551SOL     OW 2308   0.980   1.573   5.424
  551SOL    HW1 2309   0.960   1.617   5.336
  551SOL    HW2 2310   1.019   1.482   5.408
  552SOL     OW 2311   1.859   1.518   5.329
  552SOL    HW1 2312   1.873   1.545   5.234
  552SOL    HW2 2313   1.942   1.540   5.382
  553SOL     OW 2314   0.350   0.898   5.528
  553SOL    HW1 2315   0.426   0.942   5.576
  553SOL    HW2 2316   0.385   0.851   5.446
  554SOL     OW 2317   1.540   0.274   3.849
  554SOL    HW1 2318   1.479   0.199   3.872
  554SOL    HW2 2319   1.562   0.326   3.932
  555SOL     OW 2320   1.303   0.838   3.766
  555SOL    HW1 2321   1.337   0.745   3.781
  555SOL    HW2 2322   1.321   0.865   3.671
  556SOL     OW 2323   1.068   1.333   4.573
  556SOL    HW1 2324   1.075   1.249   4.518
  556SOL    HW2 2325   1.130   1.402   4.537
  557SOL     OW 2326   0.319   0.810   4.673
  557SOL    HW1 2327   0.412   0.846   4.678
  557SOL    HW2 2328   0.313   0.725   4.725
  558SOL     OW 2329   0.339   0.509   4.730
  558SOL    HW1 2330   0.287   0.426   4.713
  558SOL    HW2 2331   0.416   0.514   4.666
  559SOL     OW 2332   1.138   0.380   5.402
  559SOL    HW1 2333   1.093   0.443   5.466
  559SOL    HW2 2334   1.231   0.411   5.385
  560SOL     OW 2335   1.160   0.207   5.201
  560SOL    HW1 2336   1.160   0.271   5.278
  560SOL    HW2 2337   1.188   0.255   5.118
  561SOL     OW 2338   0.008   1.326   3.924
  561SOL    HW1 2339  -0.085   1.347   3.893
  561SOL    HW2 2340   0.018   1.227   3.937
  562SOL     OW 2341   0.088   1.801   4.651
  562SOL    HW1 2342   0.046   1.715   4.624
  562SOL    HW2 2343   0.182   1.804   4.617
  563SOL     OW 2344   0.504   1.568   4.634
  563SOL    HW1 2345   0.570   1.642   4.643
  563SOL    HW2 2346   0.548   1.489   4.592
  564SOL     OW 2347   1.002   0.796   4.962
  564SOL    HW1 2348   1.043   0.764   5.048
  564SOL    HW2 2349   0.906   0.769   4.959
  565SOL     OW 2350   0.040   0.544   4.838
  565SOL    HW1 2351   0.125   0.511   4.797
  565SOL    HW2 2352   0.053   0.559   4.936
  566SOL     OW 2353   0.189   0.520   5.446
  566SOL    HW1 2354   0.248   0.480   5.376
  566SOL    HW2 2355   0.131   0.591   5.405
  567SOL     OW 2356   1.369   0.950   5.384
  567SOL    HW1 2357   1.408   1.039   5.404
  567SOL    HW2 2358   1.379   0.930   5.287
  568SOL     OW 2359   0.815   0.572   4.049
  568SOL    HW1 2360   0.822   0.483   4.003
  568SOL    HW2 2361   0.721   0.606   4.041
  569SOL     OW 2362   1.657   0.604   4.930
  569SOL    HW1 2363   1.619   0.535   4.992
  569SOL    HW2 2364   1.739   0.568   4.886
  570SOL     OW 2365   0.252   1.564   5.468
  570SOL    HW1 2366   0.222   1.621   5.544
  570SOL    HW2 2367   0.245   1.467   5.494
  571SOL     OW 2368   0.671   0.464   4.993
  571SOL    HW1 2369   0.637   0.375   4.963
  571SOL    HW2 2370   0.697   0.518   4.913
  572SOL     OW 2371   0.930   1.678   5.189
  572SOL    HW1 2372   0.906   1.660   5.094
  572SOL    HW2 2373   0.960   1.772   5.199
  573SOL     OW 2374   0.473   0.500   3.915
  573SOL    HW1 2375   0.534   0.580   3.919
  573SOL    HW2 2376   0.378   0.531   3.922
  574SOL     OW 2377   0.159   1.137   5.190
  574SOL    HW1 2378   0.181   1.076   5.266
  574SOL    HW2 2379   0.169   1.088   5.104
  575SOL     OW 2380   1.347   1.059   4.958
  575SOL    HW1 2381   1.371   0.996   4.884
  575SOL    HW2 2382   1.257   1.099   4.940
  576SOL     OW 2383   1.302   0.855   4.033
  576SOL    HW1 2384   1.216   0.824   4.075
  576SOL    HW2 2385   1.298   0.841   3.934
  577SOL     OW 2386   1.759   1.747   4.878
  577SOL    HW1 2387   1.820   1.777   4.805
  577SOL    HW2 2388   1.721   1.658   4.856
  578SOL     OW 2389   1.252   1.731   4.852
  578SOL    HW1 2390   1.336   1.736   4.798
  578SOL    HW2 2391   1.229   1.635   4.870
  579SOL     OW 2392   0.083   1.258   4.746
  579SOL    HW1 2393   0.078   1.257   4.846
  579SOL    HW2 2394   0.000   1.217   4.708
  580SOL     OW 2395   0.688   1.662   5.440
  580SOL    HW1 2396   0.632   1.743   5.449
  580SOL    HW2 2397   0.740   1.666   5.354
  581SOL     OW 2398   1.726   0.135   4.247
  581SOL    HW1 2399   1.799   0.118   4.180
  581SOL    HW2 2400   1.695   0.048   4.285
  582SOL     OW 2401   1.388   1.573   4.201
  582SOL    HW1 2402   1.455   1.585   4.127
  582SOL    HW2 2403   1.348   1.662   4.224
  583SOL     OW 2404   0.130   1.794   5.575
  583SOL    HW1 2405   0.089   1.720   5.628
  583SOL    HW2 2406   0.194   1.845   5.633
  584SOL     OW 2407   1.280   0.927   4.396
  584SOL    HW1 2408   1.340   0.846   4.398
  584SOL    HW2 2409   1.320   0.996   4.336
  585SOL     OW 2410   0.830   1.273   5.146
  585SOL    HW1 2411   0.825   1.306   5.241
  585SOL    HW2 2412   0.744   1.292   5.100
  586SOL     OW 2413   0.672   1.616   3.878
  586SOL    HW1 2414   0.681   1.626   3.779
  586SOL    HW2 2415   0.632   1.527   3.899
  587SOL     OW 2416   1.650   1.720   5.118
  587SOL    HW1 2417   1.703   1.730   5.034
  587SOL    HW2 2418   1.623   1.810   5.152
  588SOL     OW 2419   1.841   0.175   4.687
  588SOL    HW1 2420   1.880   0.090   4.651
  588SOL    HW2 2421   1.743   0.177   4.668
  589SOL     OW 2422   0.263   0.326   4.444
  589SOL    HW1 2423   0.184   0.377   4.410
  589SOL    HW2 2424   0.254   0.311   4.542
  590SOL     OW 2425   1.194   1.612   3.755
  590SOL    HW1 2426   1.200   1.519   3.792
  590SOL    HW2 2427   1.135   1.612   3.675
  591SOL     OW 2428   0.822   1.002   5.096
  591SOL    HW1 2429   0.862   1.001   5.004
  591SOL    HW2 2430   0.832   1.094   5.136
  592SOL     OW 2431   0.916   0.910   4.015
  592SOL    HW1 2432   0.979   0.948   3.947
  592SOL    HW2 2433   0.956   0.827   4.054
  593SOL     OW 2434   1.504   1.607   3.768
  593SOL    HW1 2435   1.412   1.644   3.775
  593SOL    HW2 2436   1.542   1.627   3.678
  594SOL     OW 2437   0.372   1.288   5.214
  594SOL    HW1 2438   0.359   1.381   5.180
  594SOL    HW2 2439   0.288   1.236   5.201
  595SOL     OW 2440   1.614   1.292   5.013
  595SOL    HW1 2441   1.674   1.295   5.093
  595SOL    HW2 2442   1.539   1.356   5.026
  596SOL     OW 2443   1.039   1.098   4.420
  596SOL    HW1 2444   0.969   1.051   4.474
  596SOL    HW2 2445   1.098   1.030   4.377
  597SOL     OW 2446   1.014   0.236   4.695
  597SOL    HW1 2447   1.006   0.200   4.602
  597SOL    HW2 2448   1.012   0.160   4.760
  598SOL     OW 2449   0.590   1.487   4.215
  598SOL    HW1 2450   0.632   1.429   4.145
  598SOL    HW2 2451   0.546   1.566   4.171
  599SOL     OW 2452   1.709   0.385   5.105
  599SOL    HW1 2453   1.782   0.454   5.109
  599SOL    HW2 2454   1.737   0.310   5.046
  600SOL     OW 2455   0.255   1.348   4.014
  600SOL    HW1 2456   0.159   1.349   3.987
  600SOL    HW2 2457   0.267   1.401   4.098
  601SOL     OW 2458   0.105   1.013   5.450
  601SOL    HW1 2459   0.028   0.980   5.504
  601SOL    HW2 2460   0.190   0.983   5.492
  602SOL     OW 2461   0.672   0.203   5.213
  602SOL    HW1 2462   0.762   0.187   5.173
  602SOL    HW2 2463   0.680   0.208   5.312
  603SOL     OW 2464   0.075   0.345   3.757
  603SOL    HW1 2465  -0.017   0.317   3.728
  603SOL    HW2 2466   0.106   0.422   3.701
  604SOL     OW 2467   1.440   0.856   5.122
  604SOL    HW1 2468   1.383   0.908   5.059
  604SOL    HW2 2469   1.536   0.868   5.098
  605SOL     OW 2470   0.072   0.166   4.042
  605SOL    HW1 2471   0.055   0.249   3.988
  605SOL    HW2 2472   0.162   0.129   4.020
  606SOL     OW 2473   1.183   1.335   3.843
  606SOL    HW1 2474   1.084   1.324   3.845
  606SOL    HW2 2475   1.217   1.350   3.936
  607SOL     OW 2476   0.613   0.842   5.155
  607SOL    HW1 2477   0.669   0.923   5.138
  607SOL    HW2 2478   0.672   0.762   5.158
  608SOL     OW 2479   1.493   1.767   4.683
  608SOL    HW1 2480   1.526   1.831   4.614
  608SOL    HW2 2481   1.559   1.761   4.758
  609SOL     OW 2482   0.716   0.565   5.432
  609SOL    HW1 2483   0.735   0.630   5.506
  609SOL    HW2 2484   0.776   0.485   5.441
  610SOL     OW 2485   1.450   1.220   5.357
  610SOL    HW1 2486   1.441   1.210   5.456
  610SOL    HW2 2487   1.546   1.213   5.331
  611SOL     OW 2488   0.390   1.741   5.284
  611SOL    HW1 2489   0.299   1.782   5.282
  611SOL    HW2 2490   0.383   1.647   5.316
  612SOL     OW 2491   1.674   0.883   4.978
  612SOL    HW1 2492   1.647   0.794   4.941
  612SOL    HW2 2493   1.675   0.951   4.905
  613SOL     OW 2494   1.225   0.325   4.173
  613SOL    HW1 2495   1.290   0.251   4.162
  613SOL    HW2 2496   1.245   0.375   4.257
  614SOL     OW 2497   0.594   0.745   4.376
  614SOL    HW1 2498   0.644   0.830   4.357
  614SOL    HW2 2499   0.506   0.747   4.328
  615SOL     OW 2500   1.777   0.342   5.366
  615SOL    HW1 2501   1.760   0.373   5.272
  615SOL    HW2 2502   1.693   0.305   5.404
  616SOL     OW 2503   1.730   0.934   5.241
  616SOL    HW1 2504   1.768   1.025   5.256
  616SOL    HW2 2505   1.722   0.917   5.142
  617SOL     OW 2506   0.859   1.374   3.740
  617SOL    HW1 2507   0.813   1.389   3.828
  617SOL    HW2 2508   0.903   1.459   3.710
  618SOL     OW 2509   0.661   1.790   4.677
  618SOL    HW1 2510   0.615   1.878   4.664
  618SOL    HW2 2511   0.760   1.802   4.670
  619SOL     OW 2512   0.859   0.956   4.585
  619SOL    HW1 2513   0.913   0.887   4.633
  619SOL    HW2 2514   0.827   1.025   4.651
  620SOL     OW 2515   1.083   0.984   3.811
  620SOL    HW1 2516   1.060   1.037   3.729
  620SOL    HW2 2517   1.164   0.928   3.792
  621SOL     OW 2518   1.861   1.569   4.575
  621SOL    HW1 2519   1.790   1.557   4.505
  621SOL    HW2 2520   1.862   1.490   4.635
  622SOL     OW 2521   0.221   1.314   5.568
  622SOL    HW1 2522   0.156   1.241   5.547
  622SOL    HW2 2523   0.225   1.328   5.666
  623SOL     OW 2524   0.079   1.240   4.377
  623SOL    HW1 2525   0.078   1.193   4.465
  623SOL    HW2 2526   0.161   1.212   4.326
  624SOL     OW 2527   0.672   1.391   5.348
  624SOL    HW1 2528   0.594   1.341   5.386
  624SOL    HW2 2529   0.669   1.486   5.379
  625SOL     OW 2530   1.824   0.192   4.951
  625SOL    HW1 2531   1.820   0.102   4.995
  625SOL    HW2 2532   1.827   0.181   4.852
  626SOL     OW 2533   0.428   0.424   4.244
  626SOL    HW1 2534   0.458   0.352   4.182
  626SOL    HW2 2535   0.389   0.384   4.327
  627SOL     OW 2536   1.705   1.487   4.828
  627SOL    HW1 2537   1.612   1.462   4.801
  627SOL    HW2 2538   1.731   1.437   4.910
  628SOL     OW 2539   0.317   0.547   5.004
  628SOL    HW1 2540   0.355   0.488   5.076
  628SOL    HW2 2541   0.357   0.521   4.916
  629SOL     OW 2542   0.812   1.586   4.411
  629SOL    HW1 2543   0.844   1.596   4.317
  629SOL    HW2 2544   0.733   1.524   4.413
  630SOL     OW 2545   1.424   0.214   4.836
  630SOL    HW1 2546   1.476   0.149   4.891
  630SOL    HW2 2547   1.375   0.277   4.897
  631SOL     OW 2548   1.001   0.034   4.878
  631SOL    HW1 2549   0.938  -0.038   4.847
  631SOL    HW2 2550   1.094  -0.002   4.878
  632SOL     OW 2551   0.770   1.330   4.025
  632SOL    HW1 2552   0.724   1.243   4.042
  632SOL    HW2 2553   0.861   1.327   4.066
  633SOL     OW 2554   0.618   1.567   5.008
  633SOL    HW1 2555   0.613   1.649   5.065
  633SOL    HW2 2556   0.707   1.564   4.963
  634SOL     OW 2557   1.352   0.052   3.892
  634SOL    HW1 2558   1.387   0.011   3.808
  634SOL    HW2 2559   1.262   0.014   3.912
  635SOL     OW 2560   1.300   0.453   4.415
  635SOL    HW1 2561   1.241   0.533   4.419
  635SOL    HW2 2562   1.315   0.418   4.508
  636SOL     OW 2563   1.593   0.221   4.606
  636SOL    HW1 2564   1.509   0.220   4.660
  636SOL    HW2 2565   1.595   0.304   4.550
  637SOL     OW 2566   0.039   1.077   4.024
  637SOL    HW1 2567   0.138   1.066   4.015
  637SOL    HW2 2568  -0.001   0.991   4.056
  638SOL     OW 2569   0.875   1.646   4.061
  638SOL    HW1 2570   0.798   1.611   4.007
  638SOL    HW2 2571   0.843   1.717   4.123
  639SOL     OW 2572   0.230   0.628   5.699
  639SOL    HW1 2573   0.137   0.626   5.736
  639SOL    HW2 2574   0.231   0.589   5.607
  640SOL     OW 2575   0.225   0.275   6.582
  640SOL    HW1 2576   0.260   0.258   6.674
  640SOL    HW2 2577   0.137   0.230   6.570
  641SOL     OW 2578   0.019   0.368   6.233
  641SOL    HW1 2579  -0.063   0.411   6.272
  641SOL    HW2 2580  -0.009   0.295   6.170
  642SOL     OW 2581   0.569   1.275   6.751
  642SOL    HW1 2582   0.476   1.268   6.714
  642SOL    HW2 2583   0.580   1.364   6.795
  643SOL     OW 2584   1.555   1.511   6.289
  643SOL    HW1 2585   1.498   1.495   6.370
  643SOL    HW2 2586   1.496   1.521   6.209
  644SOL     OW 2587   1.135   0.703   6.303
  644SOL    HW1 2588   1.192   0.781   6.278
  644SOL    HW2 2589   1.075   0.729   6.379
  645SOL     OW 2590   1.755   0.607   5.817
  645SOL    HW1 2591   1.743   0.594   5.718
  645SOL    HW2 2592   1.725   0.526   5.866
  646SOL     OW 2593   0.768   1.144   6.609
  646SOL    HW1 2594   0.690   1.161   6.669
  646SOL    HW2 2595   0.802   1.231   6.573
  647SOL     OW 2596   0.850   0.798   7.409
  647SOL    HW1 2597   0.846   0.874   7.474
  647SOL    HW2 2598   0.872   0.834   7.318
  648SOL     OW 2599   0.685   1.012   6.251
  648SOL    HW1 2600   0.754   0.996   6.321
  648SOL    HW2 2601   0.612   1.069   6.289
  649SOL     OW 2602   0.686   1.161   7.389
  649SOL    HW1 2603   0.746   1.240   7.403
  649SOL    HW2 2604   0.600   1.192   7.348
  650SOL     OW 2605   0.335   1.435   6.647
  650SOL    HW1 2606   0.257   1.404   6.594
  650SOL    HW2 2607   0.393   1.493   6.590
  651SOL     OW 2608   1.460   1.505   6.925
  651SOL    HW1 2609   1.484   1.599   6.951
  651SOL    HW2 2610   1.444   1.451   7.007
  652SOL     OW 2611   0.438   0.392   7.085
  652SOL    HW1 2612   0.520   0.336   7.094
  652SOL    HW2 2613   0.357   0.334   7.089
  653SOL     OW 2614   1.603   0.447   6.323
  653SOL    HW1 2615   1.529   0.493   6.273
  653SOL    HW2 2616   1.654   0.515   6.376
  654SOL     OW 2617   0.231   1.713   6.069
  654SOL    HW1 2618   0.265   1.790   6.123
  654SOL    HW2 2619   0.275   1.713   5.979
  655SOL     OW 2620   1.127   1.341   7.276
  655SOL    HW1 2621   1.174   1.341   7.364
  655SOL    HW2 2622   1.079   1.254   7.265
  656SOL     OW 2623   0.230   1.434   6.124
  656SOL    HW1 2624   0.204   1.530   6.124
  656SOL    HW2 2625   0.159   1.380   6.169
  657SOL     OW 2626   0.240   1.091   6.472
  657SOL    HW1 2627   0.254   1.007   6.524
  657SOL    HW2 2628   0.185   1.155   6.527
  658SOL     OW 2629   0.620   1.786   7.025
  658SOL    HW1 2630   0.528   1.769   7.060
  658SOL    HW2 2631   0.648   1.878   7.051
  659SOL     OW 2632   0.606   0.964   5.709
  659SOL    HW1 2633   0.613   1.048   5.655
  659SOL    HW2 2634   0.652   0.977   5.797
  660SOL     OW 2635   1.594   0.114   7.066
  660SOL    HW1 2636   1.576   0.181   6.994
  660SOL    HW2 2637   1.591   0.160   7.155
  661SOL     OW 2638   0.122   0.643   6.149
  661SOL    HW1 2639   0.077   0.555   6.166
  661SOL    HW2 2640   0.121   0.697   6.233
  662SOL     OW 2641   1.842   1.767   5.945
  662SOL    HW1 2642   1.896   1.738   6.025
  662SOL    HW2 2643   1.872   1.857   5.916
  663SOL     OW 2644   0.027   1.596   5.703
  663SOL    HW1 2645   0.008   1.500   5.724
  663SOL    HW2 2646  -0.006   1.654   5.778
  664SOL     OW 2647   1.689   0.922   6.198
  664SOL    HW1 2648   1.784   0.893   6.206
  664SOL    HW2 2649   1.681   0.987   6.123
  665SOL     OW 2650   1.641   1.108   6.018
  665SOL    HW1 2651   1.727   1.110   5.966
  665SOL    HW2 2652   1.655   1.155   6.106
  666SOL     OW 2653   0.113   0.737   7.183
  666SOL    HW1 2654   0.201   0.724   7.228
  666SOL    HW2 2655   0.100   0.834   7.161
  667SOL     OW 2656   0.613   1.365   6.312
  667SOL    HW1 2657   0.564   1.278   6.321
  667SOL    HW2 2658   0.590   1.408   6.225
  668SOL     OW 2659   1.293   1.228   7.009
  668SOL    HW1 2660   1.330   1.155   6.951
  668SOL    HW2 2661   1.345   1.233   7.094
  669SOL     OW 2662   0.809   0.004   6.088
  669SOL    HW1 2663   0.849   0.095   6.079
  669SOL    HW2 2664   0.709   0.012   6.094
  670SOL     OW 2665   0.197   0.976   6.850
  670SOL    HW1 2666   0.286   0.931   6.836
  670SOL    HW2 2667   0.124   0.911   6.831
  671SOL     OW 2668   1.525   0.999   5.776
  671SOL    HW1 2669   1.462   0.923   5.789
  671SOL    HW2 2670   1.573   1.017   5.862
  672SOL     OW 2671   1.187   1.792   7.202
  672SOL    HW1 2672   1.211   1.852   7.126
  672SOL    HW2 2673   1.194   1.697   7.172
  673SOL     OW 2674   0.317   0.251   7.387
  673SOL    HW1 2675   0.388   0.322   7.393
  673SOL    HW2 2676   0.229   0.290   7.415
  674SOL     OW 2677   1.466   1.417   6.539
  674SOL    HW1 2678   1.407   1.423   6.619
  674SOL    HW2 2679   1.451   1.329   6.493
  675SOL     OW 2680   1.667   1.714   6.158
  675SOL    HW1 2681   1.626   1.691   6.070
  675SOL    HW2 2682   1.649   1.640   6.223
  676SOL     OW 2683   0.598   0.729   5.856
  676SOL    HW1 2684   0.622   0.798   5.788
  676SOL    HW2 2685   0.520   0.762   5.910
  677SOL     OW 2686   1.281   0.345   6.530
  677SOL    HW1 2687   1.195   0.295   6.517
  677SOL    HW2 2688   1.343   0.291   6.586
  678SOL     OW 2689   1.576   1.662   5.893
  678SOL    HW1 2690   1.665   1.708   5.896
  678SOL    HW2 2691   1.555   1.638   5.798
  679SOL     OW 2692   0.807   0.605   7.051
  679SOL    HW1 2693   0.760   0.602   7.140
  679SOL    HW2 2694   0.756   0.550   6.985
  680SOL     OW 2695   1.394   0.469   7.260
  680SOL    HW1 2696   1.374   0.512   7.348
  680SOL    HW2 2697   1.472   0.407   7.269
  681SOL     OW 2698   0.973   0.890   7.158
  681SOL    HW1 2699   1.019   0.806   7.129
  681SOL    HW2 2700   0.917   0.924   7.083
  682SOL     OW 2701   0.991   0.410   6.828
  682SOL    HW1 2702   0.914   0.444   6.882
  682SOL    HW2 2703   0.957   0.359   6.749
  683SOL     OW 2704   1.041   0.701   6.015
  683SOL    HW1 2705   1.067   0.697   6.111
  683SOL    HW2 2706   0.956   0.650   6.001
  684SOL     OW 2707   0.076   0.811   6.375
  684SOL    HW1 2708   0.175   0.799   6.384
  684SOL    HW2 2709   0.052   0.906   6.396
  685SOL     OW 2710   0.130   1.821   7.157
  685SOL    HW1 2711   0.120   1.806   7.256
  685SOL    HW2 2712   0.044   1.857   7.121
  686SOL     OW 2713   0.865   0.348   5.781
  686SOL    HW1 2714   0.924   0.411   5.732
  686SOL    HW2 2715   0.884   0.254   5.752
  687SOL     OW 2716   1.719   0.585   7.417
  687SOL    HW1 2717   1.693   0.674   7.381
  687SOL    HW2 2718   1.717   0.517   7.344
  688SOL     OW 2719   1.362   1.144   6.131
  688SOL    HW1 2720   1.445   1.115   6.083
  688SOL    HW2 2721   1.313   1.211   6.075
  689SOL     OW 2722   0.550   0.196   6.471
  689SOL    HW1 2723   0.545   0.191   6.571
  689SOL    HW2 2724   0.552   0.292   6.442
  690SOL     OW 2725   1.008   1.456   6.063
  690SOL    HW1 2726   0.962   1.528   6.011
  690SOL    HW2 2727   1.004   1.476   6.161
  691SOL     OW 2728   0.351   1.801   6.439
  691SOL    HW1 2729   0.401   1.715   6.445
  691SOL    HW2 2730   0.416   1.878   6.436
  692SOL     OW 2731   1.795   1.066   6.459
  692SOL    HW1 2732   1.733   1.051   6.383
  692SOL    HW2 2733   1.743   1.077   6.544
  693SOL     OW 2734   1.227   1.550   7.092
  693SOL    HW1 2735   1.233   1.473   7.156
  693SOL    HW2 2736   1.175   1.524   7.012
  694SOL     OW 2737   0.321   0.943   5.828
  694SOL    HW1 2738   0.403   0.982   5.786
  694SOL    HW2 2739   0.294   0.861   5.779
  695SOL     OW 2740   1.458   0.735   6.314
  695SOL    HW1 2741   1.453   0.670   6.389
  695SOL    HW2 2742   1.538   0.794   6.327
  696SOL     OW 2743   0.461   1.266   7.313
  696SOL    HW1 2744   0.411   1.267   7.227
  696SOL    HW2 2745   0.398   1.248   7.389
  697SOL     OW 2746   1.111   1.776   5.823
  697SOL    HW1 2747   1.051   1.714   5.873
  697SOL    HW2 2748   1.142   1.732   5.738
  698SOL     OW 2749   0.202   0.285   7.084
  698SOL    HW1 2750   0.122   0.345   7.071
  698SOL    HW2 2751   0.192   0.236   7.170
  699SOL     OW 2752   1.632   1.377   5.667
  699SOL    HW1 2753   1.600   1.471   5.657
  699SOL    HW2 2754   1.556   1.314   5.655
  700SOL     OW 2755   0.464   1.743   5.909
  700SOL    HW1 2756   0.497   1.782   5.995
  700SOL    HW2 2757   0.540   1.736   5.844
  701SOL     OW 2758   1.400   0.107   6.012
  701SOL    HW1 2759   1.376   0.070   5.922
  701SOL    HW2 2760   1.499   0.123   6.016
  702SOL     OW 2761   0.249   1.785   6.827
  702SOL    HW1 2762   0.306   1.720   6.877
  702SOL    HW2 2763   0.233   1.752   6.734
  703SOL     OW 2764   0.940   1.698   6.490
  703SOL    HW1 2765   1.020   1.641   6.511
  703SOL    HW2 2766   0.891   1.658   6.413
  704SOL     OW 2767   0.382   0.700   6.066
  704SOL    HW1 2768   0.427   0.610   6.063
  704SOL    HW2 2769   0.288   0.689   6.099
  705SOL     OW 2770   1.547   0.222   7.315
  705SOL    HW1 2771   1.542   0.259   7.407
  705SOL    HW2 2772   1.475   0.153   7.303
  706SOL     OW 2773   0.614   0.122   5.703
  706SOL    HW1 2774   0.712   0.100   5.710
  706SOL    HW2 2775   0.583   0.105   5.610
  707SOL     OW 2776   0.781   0.264   7.335
  707SOL    HW1 2777   0.848   0.203   7.378
  707SOL    HW2 2778   0.708   0.283   7.400
  708SOL     OW 2779   0.888   1.514   6.781
  708SOL    HW1 2780   0.865   1.489   6.687
  708SOL    HW2 2781   0.949   1.445   6.820
  709SOL     OW 2782   1.351   0.590   7.019
  709SOL    HW1 2783   1.379   0.547   7.104
  709SOL    HW2 2784   1.376   0.686   7.020
  710SOL     OW 2785   0.803   1.402   6.510
  710SOL    HW1 2786   0.893   1.416   6.468
  710SOL    HW2 2787   0.732   1.404   6.439
  711SOL     OW 2788   0.922   0.503   6.485
  711SOL    HW1 2789   0.897   0.494   6.389
  711SOL    HW2 2790   0.970   0.421   6.516
  712SOL     OW 2791   0.539   0.064   6.098
  712SOL    HW1 2792   0.458   0.065   6.156
  712SOL    HW2 2793   0.542   0.147   6.043
  713SOL     OW 2794   1.434   1.188   5.627
  713SOL    HW1 2795   1.466   1.112   5.684
  713SOL    HW2 2796   1.342   1.215   5.657
  714SOL     OW 2797   0.297   0.035   5.757
  714SOL    HW1 2798   0.346   0.119   5.736
  714SOL    HW2 2799   0.359  -0.030   5.802
  715SOL     OW 2800   0.935   0.236   6.066
  715SOL    HW1 2801   0.887   0.277   5.988
  715SOL    HW2 2802   1.034   0.234   6.047
  716SOL     OW 2803   1.076   0.683   7.050
  716SOL    HW1 2804   0.996   0.622   7.053
  716SOL    HW2 2805   1.157   0.630   7.026
  717SOL     OW 2806   1.227   1.570   6.379
  717SOL    HW1 2807   1.248   1.644   6.314
  717SOL    HW2 2808   1.295   1.570   6.452
  718SOL     OW 2809   0.459   1.152   6.327
  718SOL    HW1 2810   0.388   1.125   6.392
  718SOL    HW2 2811   0.433   1.124   6.234
  719SOL     OW 2812   1.271   1.797   6.177
  719SOL    HW1 2813   1.315   1.861   6.113
  719SOL    HW2 2814   1.221   1.849   6.247
  720SOL     OW 2815   1.032   0.549   5.602
  720SOL    HW1 2816   0.991   0.631   5.563
  720SOL    HW2 2817   1.096   0.575   5.675
  721SOL     OW 2818   0.078   0.556   6.972
  721SOL    HW1 2819   0.170   0.555   6.931
  721SOL    HW2 2820   0.072   0.630   7.039
  722SOL     OW 2821   0.561   0.222   6.733
  722SOL    HW1 2822   0.599   0.138   6.770
  722SOL    HW2 2823   0.473   0.241   6.777
  723SOL     OW 2824   0.866   0.454   6.228
  723SOL    HW1 2825   0.834   0.526   6.166
  723SOL    HW2 2826   0.890   0.373   6.175
  724SOL     OW 2827   1.017   0.039   6.339
  724SOL    HW1 2828   0.945   0.044   6.270
  724SOL    HW2 2829   0.993  -0.030   6.408
  725SOL     OW 2830   1.429   1.173   6.453
  725SOL    HW1 2831   1.374   1.089   6.446
  725SOL    HW2 2832   1.455   1.202   6.361
  726SOL     OW 2833   1.466   0.590   6.578
  726SOL    HW1 2834   1.436   0.495   6.585
  726SOL    HW2 2835   1.539   0.606   6.644
  727SOL     OW 2836   1.857   0.833   5.963
  727SOL    HW1 2837   1.899   0.769   6.027
  727SOL    HW2 2838   1.819   0.782   5.885
  728SOL     OW 2839   0.488   1.385   5.760
  728SOL    HW1 2840   0.401   1.370   5.807
  728SOL    HW2 2841   0.471   1.411   5.665
  729SOL     OW 2842   1.664   1.280   6.243
  729SOL    HW1 2843   1.763   1.288   6.257
  729SOL    HW2 2844   1.619   1.364   6.274
  730SOL     OW 2845   1.390   0.575   5.664
  730SOL    HW1 2846   1.336   0.554   5.745
  730SOL    HW2 2847   1.481   0.534   5.673
  731SOL     OW 2848   0.527   0.256   5.914
  731SOL    HW1 2849   0.554   0.197   5.839
  731SOL    HW2 2850   0.527   0.351   5.883
  732SOL     OW 2851   1.754   1.223   7.174
  732SOL    HW1 2852   1.845   1.184   7.161
  732SOL    HW2 2853   1.762   1.319   7.198
  733SOL     OW 2854   1.064   1.347   6.926
  733SOL    HW1 2855   0.984   1.324   6.981
  733SOL    HW2 2856   1.147   1.321   6.975
  734SOL     OW 2857   1.592   1.629   7.211
  734SOL    HW1 2858   1.619   1.663   7.121
  734SOL    HW2 2859   1.671   1.591   7.257
  735SOL     OW 2860   1.111   1.195   6.686
  735SOL    HW1 2861   1.071   1.239   6.767
  735SOL    HW2 2862   1.070   1.232   6.603
  736SOL     OW 2863   1.638   1.099   6.665
  736SOL    HW1 2864   1.643   1.180   6.724
  736SOL    HW2 2865   1.552   1.101   6.614
  737SOL     OW 2866   0.915   0.089   6.988
  737SOL    HW1 2867   0.940   0.069   6.893
  737SOL    HW2 2868   0.987   0.145   7.030
  738SOL     OW 2869   0.980   1.116   7.305
  738SOL    HW1 2870   0.881   1.122   7.315
  738SOL    HW2 2871   1.003   1.036   7.249
  739SOL     OW 2872   0.705   1.050   5.954
  739SOL    HW1 2873   0.691   1.057   6.053
  739SOL    HW2 2874   0.789   0.999   5.936
  740SOL     OW 2875   0.410   0.813   6.837
  740SOL    HW1 2876   0.496   0.825   6.887
  740SOL    HW2 2877   0.368   0.726   6.864
  741SOL     OW 2878   1.274   0.386   6.848
  741SOL    HW1 2879   1.295   0.460   6.912
  741SOL    HW2 2880   1.185   0.403   6.805
  742SOL     OW 2881   0.064   1.564   6.917
  742SOL    HW1 2882   0.018   1.646   6.883
  742SOL    HW2 2883   0.162   1.583   6.926
  743SOL     OW 2884   0.367   1.100   6.087
  743SOL    HW1 2885   0.360   1.183   6.031
  743SOL    HW2 2886   0.371   1.020   6.027
  744SOL     OW 2887   0.566   0.537   6.451
  744SOL    HW1 2888   0.578   0.603   6.377
  744SOL    HW2 2889   0.612   0.571   6.534
  745SOL     OW 2890   1.252   1.348   5.974
  745SOL    HW1 2891   1.302   1.425   6.014
  745SOL    HW2 2892   1.157   1.350   6.006
  746SOL     OW 2893   1.272   1.445   6.728
  746SOL    HW1 2894   1.319   1.458   6.815
  746SOL    HW2 2895   1.206   1.371   6.737
  747SOL     OW 2896   1.582   0.639   6.058
  747SOL    HW1 2897   1.551   0.700   6.131
  747SOL    HW2 2898   1.632   0.691   5.989
  748SOL     OW 2899   0.354   1.510   6.915
  748SOL    HW1 2900   0.333   1.466   6.828
  748SOL    HW2 2901   0.451   1.536   6.918
  749SOL     OW 2902   0.402   0.751   7.184
  749SOL    HW1 2903   0.470   0.806   7.137
  749SOL    HW2 2904   0.442   0.663   7.211
  750SOL     OW 2905   1.587   0.779   7.256
  750SOL    HW1 2906   1.495   0.817   7.251
  750SOL    HW2 2907   1.647   0.826   7.191
  751SOL     OW 2908   1.013   0.105   7.356
  751SOL    HW1 2909   1.019   0.190   7.304
  751SOL    HW2 2910   1.045   0.029   7.299
  752SOL     OW 2911   0.504   0.050   7.326
  752SOL    HW1 2912   0.462  -0.007   7.256
  752SOL    HW2 2913   0.438   0.119   7.358
  753SOL     OW 2914   0.573   0.870   6.615
  753SOL    HW1 2915   0.617   0.959   6.606
  753SOL    HW2 2916   0.510   0.870   6.692
  754SOL     OW 2917   1.360   0.862   6.631
  754SOL    HW1 2918   1.285   0.862   6.565
  754SOL    HW2 2919   1.397   0.770   6.640
  755SOL     OW 2920   1.209   0.525   5.861
  755SOL    HW1 2921   1.222   0.441   5.915
  755SOL    HW2 2922   1.180   0.599   5.921
  756SOL     OW 2923   0.307   0.213   6.817
  756SOL    HW1 2924   0.284   0.250   6.907
  756SOL    HW2 2925   0.277   0.118   6.811
  757SOL     OW 2926   0.037   1.310   6.868
  757SOL    HW1 2927   0.090   1.261   6.936
  757SOL    HW2 2928   0.059   1.408   6.873
  758SOL     OW 2929   0.732   0.634   6.650
  758SOL    HW1 2930   0.791   0.608   6.574
  758SOL    HW2 2931   0.704   0.730   6.639
  759SOL     OW 2932   1.728   0.935   7.440
  759SOL    HW1 2933   1.682   0.928   7.351
  759SOL    HW2 2934   1.666   0.979   7.506
  760SOL     OW 2935   0.307   0.063   6.204
  760SOL    HW1 2936   0.296   0.157   6.237
  760SOL    HW2 2937   0.302   0.000   6.281
  761SOL     OW 2938   1.622   0.367   5.960
  761SOL    HW1 2939   1.624   0.291   6.024
  761SOL    HW2 2940   1.574   0.444   6.000
  762SOL     OW 2941   1.023   0.766   6.552
  762SOL    HW1 2942   1.038   0.787   6.648
  762SOL    HW2 2943   0.993   0.671   6.543
  763SOL     OW 2944   0.980   1.573   7.286
  763SOL    HW1 2945   0.960   1.617   7.198
  763SOL    HW2 2946   1.019   1.482   7.270
  764SOL     OW 2947   1.859   1.518   7.191
  764SOL    HW1 2948   1.873   1.545   7.096
  764SOL    HW2 2949   1.942   1.540   7.244
  765SOL     OW 2950   0.350   0.898   7.390
  765SOL    HW1 2951   0.426   0.942   7.438
  765SOL    HW2 2952   0.385   0.851   7.308
  766SOL     OW 2953   1.540   0.274   5.711
  766SOL    HW1 2954   1.479   0.199   5.734
  766SOL    HW2 2955   1.562   0.326   5.794
  767SOL     OW 2956   1.303   0.838   5.628
  767SOL    HW1 2957   1.337   0.745   5.643
  767SOL    HW2 2958   1.321   0.865   5.533
  768SOL     OW 2959   1.068   1.333   6.435
  768SOL    HW1 2960   1.075   1.249   6.380
  768SOL    HW2 2961   1.130   1.402   6.399
  769SOL     OW 2962   0.319   0.810   6.535
  769SOL    HW1 2963   0.412   0.846   6.540
  769SOL    HW2 2964   0.313   0.725   6.587
  770SOL     OW 2965   0.339   0.509   6.592
  770SOL    HW1 2966   0.287   0.426   6.575
  770SOL    HW2 2967   0.416   0.514   6.528
  771SOL     OW 2968   1.138   0.380   7.264
  771SOL    HW1 2969   1.093   0.443   7.328
  771SOL    HW2 2970   1.231   0.411   7.247
  772SOL     OW 2971   1.160   0.207   7.063
  772SOL    HW1 2972   1.160   0.271   7.140
  772SOL    HW2 2973   1.188   0.255   6.980
  773SOL     OW 2974   0.008   1.326   5.786
  773SOL    HW1 2975  -0.085   1.347   5.755
  773SOL    HW2 2976   0.018   1.227   5.799
  774SOL     OW 2977   0.088   1.801   6.513
  774SOL    HW1 2978   0.046   1.715   6.486
  774SOL    HW2 2979   0.182   1.804   6.479
  775SOL     OW 2980   0.504   1.568   6.496
  775SOL    HW1 2981   0.570   1.642   6.505
  775SOL    HW2 2982   0.548   1.489   6.454
  776SOL     OW 2983   1.002   0.796   6.824
  776SOL    HW1 2984   1.043   0.764   6.910
  776SOL    HW2 2985   0.906   0.769   6.821
  777SOL     OW 2986   0.040   0.544   6.700
  777SOL    HW1 2987   0.125   0.511   6.659
  777SOL    HW2 2988   0.053   0.559   6.798
  778SOL     OW 2989   0.189   0.520   7.308
  778SOL    HW1 2990   0.248   0.480   7.238
  778SOL    HW2 2991   0.131   0.591   7.267
  779SOL     OW 2992   1.369   0.950   7.246
  779SOL    HW1 2993   1.408   1.039   7.266
  779SOL    HW2 2994   1.379   0.930   7.149
  780SOL     OW 2995   0.815   0.572   5.911
  780SOL    HW1 2996   0.822   0.483   5.865
  780SOL    HW2 2997   0.721   0.606   5.903
  781SOL     OW 2998   1.657   0.604   6.792
  781SOL    HW1 2999   1.619   0.535   6.854
  781SOL    HW2 3000   1.739   0.568   6.748
  782SOL     OW 3001   0.252   1.564   7.330
  782SOL    HW1 3002   0.222   1.621   7.406
  782SOL    HW2 3003   0.245   1.467   7.356
  783SOL     OW 3004   0.671   0.464   6.855
  783SOL    HW1 3005   0.637   0.375   6.825
  783SOL    HW2 3006   0.697   0.518   6.775
  784SOL     OW 3007   0.930   1.678   7.051
  784SOL    HW1 3008   0.906   1.660   6.956
  784SOL    HW2 3009   0.960   1.772   7.061
  785SOL     OW 3010   0.473   0.500   5.777
  785SOL    HW1 3011   0.534   0.580   5.781
  785SOL    HW2 3012   0.378   0.531   5.784
  786SOL     OW 3013   0.159   1.137   7.052
  786SOL    HW1 3014   0.181   1.076   7.128
  786SOL    HW2 3015   0.169   1.088   6.966
  787SOL     OW 3016   1.347   1.059   6.820
  787SOL    HW1 3017   1.371   0.996   6.746
  787SOL    HW2 3018   1.257   1.099   6.802
  788SOL     OW 3019   1.302   0.855   5.895
  788SOL    HW1 3020   1.216   0.824   5.937
  788SOL    HW2 3021   1.298   0.841   5.796
  789SOL     OW 3022   1.759   1.747   6.740
  789SOL    HW1 3023   1.820   1.777   6.667
  789SOL    HW2 3024   1.721   1.658   6.718
  790SOL     OW 3025   1.252   1.731   6.714
  790SOL    HW1 3026   1.336   1.736   6.660
  790SOL    HW2 3027   1.229   1.635   6.732
  791SOL     OW 3028   0.083   1.258   6.608
  791SOL    HW1 3029   0.078   1.257   6.708
  791SOL    HW2 3030   0.000   1.217   6.570
  792SOL     OW 3031   0.688   1.662   7.302
  792SOL    HW1 3032   0.632   1.743   7.311
  792SOL    HW2 3033   0.740   1.666   7.216
  793SOL     OW 3034   1.726   0.135   6.109
  793SOL    HW1 3035   1.799   0.118   6.042
  793SOL    HW2 3036   1.695   0.048   6.147
  794SOL     OW 3037   1.388   1.573   6.063
  794SOL    HW1 3038   1.455   1.585   5.989
  794SOL    HW2 3039   1.348   1.662   6.086
  795SOL     OW 3040   0.130   1.794   7.437
  795SOL    HW1 3041   0.089   1.720   7.490
  795SOL    HW2 3042   0.194   1.845   7.495
  796SOL     OW 3043   1.280   0.927   6.258
  796SOL    HW1 3044   1.340   0.846   6.260
  796SOL    HW2 3045   1.320   0.996   6.198
  797SOL     OW 3046   0.830   1.273   7.008
  797SOL    HW1 3047   0.825   1.306   7.103
  797SOL    HW2 3048   0.744   1.292   6.962
  798SOL     OW 3049   0.672   1.616   5.740
  798SOL    HW1 3050   0.681   1.626   5.641
  798SOL    HW2 3051   0.632   1.527   5.761
  799SOL     OW 3052   1.650   1.720   6.980
  799SOL    HW1 3053   1.703   1.730   6.896
  799SOL    HW2 3054   1.623   1.810   7.014
  800SOL     OW 3055   1.841   0.175   6.549
  800SOL    HW1 3056   1.880   0.090   6.513
  800SOL    HW2 3057   1.743   0.177   6.530
  801SOL     OW 3058   0.263   0.326   6.306
  801SOL    HW1 3059   0.184   0.377   6.272
  801SOL    HW2 3060   0.254   0.311   6.404
  802SOL     OW 3061   1.194   1.612   5.617
  802SOL    HW1 3062   1.200   1.519   5.654
  802SOL    HW2 3063   1.135   1.612   5.537
  803SOL     OW 3064   0.822   1.002   6.958
  803SOL    HW1 3065   0.862   1.001   6.866
  803SOL    HW2 3066   0.832   1.094   6.998
  804SOL     OW 3067   0.916   0.910   5.877
  804SOL    HW1 3068   0.979   0.948   5.809
  804SOL    HW2 3069   0.956   0.827   5.916
  805SOL     OW 3070   1.504   1.607   5.630
  805SOL    HW1 3071   1.412   1.644   5.637
  805SOL    HW2 3072   1.542   1.627   5.540
  806SOL     OW 3073   0.372   1.288   7.076
  806SOL    HW1 3074   0.359   1.381   7.042
  806SOL    HW2 3075   0.288   1.236   7.063
  807SOL     OW 3076   1.614   1.292   6.875
  807SOL    HW1 3077   1.674   1.295   6.955
  807SOL    HW2 3078   1.539   1.356   6.888
  808SOL     OW 3079   1.039   1.098   6.282
  808SOL    HW1 3080   0.969   1.051   6.336
  808SOL    HW2 3081   1.098   1.030   6.239
  809SOL     OW 3082   1.014   0.236   6.557
  809SOL    HW1 3083   1.006   0.200   6.464
  809SOL    HW2 3084   1.012   0.160   6.622
  810SOL     OW 3085   0.590   1.487   6.077
  810SOL    HW1 3086   0.632   1.429   6.007
  810SOL    HW2 3087   0.546   1.566   6.033
  811SOL     OW 3088   1.709   0.385   6.967
  811SOL    HW1 3089   1.782   0.454   6.971
  811SOL    HW2 3090   1.737   0.310   6.908
  812SOL     OW 3091   0.255   1.348   5.876
  812SOL    HW1 3092   0.159   1.349   5.849
  812SOL    HW2 3093   0.267   1.401   5.960
  813SOL     OW 3094   0.105   1.013   7.312
  813SOL    HW1 3095   0.028   0.980   7.366
  813SOL    HW2 3096   0.190   0.983   7.354
  814SOL     OW 3097   0.672   0.203   7.075
  814SOL    HW1 3098   0.762   0.187   7.035
  814SOL    HW2 3099   0.680   0.208   7.174
  815SOL     OW 3100   0.075   0.345   5.619
  815SOL    HW1 3101  -0.017   0.317   5.590
  815SOL    HW2 3102   0.106   0.422   5.563
  816SOL     OW 3103   1.440   0.856   6.984
  816SOL    HW1 3104   1.383   0.908   6.921
  816SOL    HW2 3105   1.536   0.868   6.960
  817SOL     OW 3106   0.072   0.166   5.904
  817SOL    HW1 3107   0.055   0.249   5.850
  817SOL    HW2 3108   0.162   0.129   5.882
  818SOL     OW 3109   1.183   1.335   5.705
  818SOL    HW1 3110   1.084   1.324   5.707
  818SOL    HW2 3111   1.217   1.350   5.798
  819SOL     OW 3112   0.613   0.842   7.017
  819SOL    HW1 3113   0.669   0.923   7.000
  819SOL    HW2 3114   0.672   0.762   7.020
  820SOL     OW 3115   1.493   1.767   6.545
  820SOL    HW1 3116   1.526   1.831   6.476
  820SOL    HW2 3117   1.559   1.761   6.620
  821SOL     OW 3118   0.716   0.565   7.294
  821SOL    HW1 3119   0.735   0.630   7.368
  821SOL    HW2 3120   0.776   0.485   7.303
  822SOL     OW 3121   1.450   1.220   7.219
  822SOL    HW1 3122   1.441   1.210   7.318
  822SOL    HW2 3123   1.546   1.213   7.193
  823SOL     OW 3124   0.390   1.741   7.146
  823SOL    HW1 3125   0.299   1.782   7.144
  823SOL    HW2 3126   0.383   1.647   7.178
  824SOL     OW 3127   1.674   0.883   6.840
  824SOL    HW1 3128   1.647   0.794   6.803
  824SOL    HW2 3129   1.675   0.951   6.767
  825SOL     OW 3130   1.225   0.325   6.035
  825SOL    HW1 3131   1.290   0.251   6.024
  825SOL    HW2 3132   1.245   0.375   6.119
  826SOL     OW 3133   0.594   0.745   6.238
  826SOL    HW1 3134   0.644   0.830   6.219
  826SOL    HW2 3135   0.506   0.747   6.190
  827SOL     OW 3136   1.777   0.342   7.228
  827SOL    HW1 3137   1.760   0.373   7.134
  827SOL    HW2 3138   1.693   0.305   7.266
  828SOL     OW 3139   1.730   0.934   7.103
  828SOL    HW1 3140   1.768   1.025   7.118
  828SOL    HW2 3141   1.722   0.917   7.004
  829SOL     OW 3142   0.859   1.374   5.602
  829SOL    HW1 3143   0.813   1.389   5.690
  829SOL    HW2 3144   0.903   1.459   5.572
  830SOL     OW 3145   0.661   1.790   6.539
  830SOL    HW1 3146   0.615   1.878   6.526
  830SOL    HW2 3147   0.760   1.802   6.532
  831SOL     OW 3148   0.859   0.956   6.447
  831SOL    HW1 3149   0.913   0.887   6.495
  831SOL    HW2 3150   0.827   1.025   6.513
  832SOL     OW 3151   1.083   0.984   5.673
  832SOL    HW1 3152   1.060   1.037   5.591
  832SOL    HW2 3153   1.164   0.928   5.654
  833SOL     OW 3154   1.861   1.569   6.437
  833SOL    HW1 3155   1.790   1.557   6.367
  833SOL    HW2 3156   1.862   1.490   6.497
  834SOL     OW 3157   0.221   1.314   7.430
  834SOL    HW1 3158   0.156   1.241   7.409
  834SOL    HW2 3159   0.225   1.328   7.528
  835SOL     OW 3160   0.079   1.240   6.239
  835SOL    HW1 3161   0.078   1.193   6.327
  835SOL    HW2 3162   0.161   1.212   6.188
  836SOL     OW 3163   0.672   1.391   7.210
  836SOL    HW1 3164   0.594   1.341   7.248
  836SOL    HW2 3165   0.669   1.486   7.241
  837SOL     OW 3166   1.824   0.192   6.813
  837SOL    HW1 3167   1.820   0.102   6.857
  837SOL    HW2 3168   1.827   0.181   6.714
  838SOL     OW 3169   0.428   0.424   6.106
  838SOL    HW1 3170   0.458   0.352   6.044
  838SOL    HW2 3171   0.389   0.384   6.189
  839SOL     OW 3172   1.705   1.487   6.690
  839SOL    HW1 3173   1.612   1.462   6.663
  839SOL    HW2 3174   1.731   1.437   6.772
  840SOL     OW 3175   0.317   0.547   6.866
  840SOL    HW1 3176   0.355   0.488   6.938
  840SOL    HW2 3177   0.357   0.521   6.778
  841SOL     OW 3178   0.812   1.586   6.273
  841SOL    HW1 3179   0.844   1.596   6.179
  841SOL    HW2 3180   0.733   1.524   6.275
  842SOL     OW 3181   1.424   0.214   6.698
  842SOL    HW1 3182   1.476   0.149   6.753
  842SOL    HW2 3183   1.375   0.277   6.759
  843SOL     OW 3184   1.001   0.034   6.740
  843SOL    HW1 3185   0.938  -0.038   6.709
  843SOL    HW2 3186   1.094  -0.002   6.740
  844SOL     OW 3187   0.770   1.330   5.887
  844SOL    HW1 3188   0.724   1.243   5.904
  844SOL    HW2 3189   0.861   1.327   5.928
  845SOL     OW 3190   0.618   1.567   6.870
  845SOL    HW1 3191   0.613   1.649   6.927
  845SOL    HW2 3192   0.707   1.564   6.825
  846SOL     OW 3193   1.352   0.052   5.754
  846SOL    HW1 3194   1.387   0.011   5.670
  846SOL    HW2 3195   1.262   0.014   5.774
  847SOL     OW 3196   1.300   0.453   6.277
  847SOL    HW1 3197   1.241   0.533   6.281
  847SOL    HW2 3198   1.315   0.418   6.370
  848SOL     OW 3199   1.593   0.221   6.468
  848SOL    HW1 3200   1.509   0.220   6.522
  848SOL    HW2 3201   1.595   0.304   6.412
  849SOL     OW 3202   0.039   1.077   5.886
  849SOL    HW1 3203   0.138   1.066   5.877
  849SOL    HW2 3204  -0.001   0.991   5.918
  850SOL     OW 3205   0.875   1.646   5.923
  850SOL    HW1 3206   0.798   1.611   5.869
  850SOL    HW2 3207   0.843   1.717   5.985
  851SOL     OW 3208   0.230   0.628   7.561
  851SOL    HW1 3209   0.137   0.626   7.598
  851SOL    HW2 3210   0.231   0.589   7.469
  852SOL     OW 3211   1.755   0.607   7.679
  852SOL    HW1 3212   1.743   0.594   7.580
  852SOL    HW2 3213   1.725   0.526   7.728
  853SOL     OW 3214   0.231   1.713   7.931
  853SOL    HW1 3215   0.265   1.790   7.985
  853SOL    HW2 3216   0.275   1.713   7.841
  854SOL     OW 3217   0.230   1.434   7.986
  854SOL    HW1 3218   0.204   1.530   7.986
  854SOL    HW2 3219   0.159   1.380   8.031
  855SOL     OW 3220   0.606   0.964   7.571
  855SOL    HW1 3221   0.613   1.048   7.517
  855SOL    HW2 3222   0.652   0.977   7.659
  856SOL     OW 3223   1.842   1.767   7.807
  856SOL    HW1 3224   1.896   1.738   7.887
  856SOL    HW2 3225   1.872   1.857   7.778
  857SOL     OW 3226   0.027   1.596   7.565
  857SOL    HW1 3227   0.008   1.500   7.586
  857SOL    HW2 3228  -0.006   1.654   7.640
  858SOL     OW 3229   1.689   0.922   8.060
  858SOL    HW1 3230   1.784   0.893   8.068
  858SOL    HW2 3231   1.681   0.987   7.985
  859SOL     OW 3232   1.641   1.108   7.880
  859SOL    HW1 3233   1.727   1.110   7.828
  859SOL    HW2 3234   1.655   1.155   7.968
  860SOL     OW 3235   0.809   0.004   7.950
  860SOL    HW1 3236   0.849   0.095   7.941
  860SOL    HW2 3237   0.709   0.012   7.956
  861SOL     OW 3238   1.525   0.999   7.638
  861SOL    HW1 3239   1.462   0.923   7.651
  861SOL    HW2 3240   1.573   1.017   7.724
  862SOL     OW 3241   0.598   0.729   7.718
  862SOL    HW1 3242   0.622   0.798   7.650
  862SOL    HW2 3243   0.520   0.762   7.772
  863SOL     OW 3244   1.576   1.662   7.755
  863SOL    HW1 3245   1.665   1.708   7.758
  863SOL    HW2 3246   1.555   1.638   7.660
  864SOL     OW 3247   0.076   0.811   8.237
  864SOL    HW1 3248   0.175   0.799   8.246
  864SOL    HW2 3249   0.052   0.906   8.258
  865SOL     OW 3250   0.865   0.348   7.643
  865SOL    HW1 3251   0.924   0.411   7.594
  865SOL    HW2 3252   0.884   0.254   7.614
  866SOL     OW 3253   0.321   0.943   7.690
  866SOL    HW1 3254   0.403   0.982   7.648
  866SOL    HW2 3255   0.294   0.861   7.641
  867SOL     OW 3256   1.111   1.776   7.685
  867SOL    HW1 3257   1.051   1.714   7.735
  867SOL    HW2 3258   1.142   1.732   7.600
  868SOL     OW 3259   1.632   1.377   7.529
  868SOL    HW1 3260   1.600   1.471   7.519
  868SOL    HW2 3261   1.556   1.314   7.517
  869SOL     OW 3262   0.464   1.743   7.771
  869SOL    HW1 3263   0.497   1.782   7.857
  869SOL    HW2 3264   0.540   1.736   7.706
  870SOL     OW 3265   1.400   0.107   7.874
  870SOL    HW1 3266   1.376   0.070   7.784
  870SOL    HW2 3267   1.499   0.123   7.878
  871SOL     OW 3268   0.382   0.700   7.928
  871SOL    HW1 3269   0.427   0.610   7.925
  871SOL    HW2 3270   0.288   0.689   7.961
  872SOL     OW 3271   0.614   0.122   7.565
  872SOL    HW1 3272   0.712   0.100   7.572
  872SOL    HW2 3273   0.583   0.105   7.472
  873SOL     OW 3274   0.539   0.064   7.960
  873SOL    HW1 3275   0.458   0.065   8.018
  873SOL    HW2 3276   0.542   0.147   7.905
  874SOL     OW 3277   1.434   1.188   7.489
  874SOL    HW1 3278   1.466   1.112   7.546
  874SOL    HW2 3279   1.342   1.215   7.519
  875SOL     OW 3280   0.297   0.035   7.619
  875SOL    HW1 3281   0.346   0.119   7.598
  875SOL    HW2 3282   0.359  -0.030   7.664
  876SOL     OW 3283   0.935   0.236   7.928
  876SOL    HW1 3284   0.887   0.277   7.850
  876SOL    HW2 3285   1.034   0.234   7.909
  877SOL     OW 3286   0.459   1.152   8.189
  877SOL    HW1 3287   0.388   1.125   8.254
  877SOL    HW2 3288   0.433   1.124   8.096
  878SOL     OW 3289   1.271   1.797   8.039
  878SOL    HW1 3290   1.315   1.861   7.975
  878SOL    HW2 3291   1.221   1.849   8.109
  879SOL     OW 3292   1.032   0.549   7.464
  879SOL    HW1 3293   0.991   0.631   7.425
  879SOL    HW2 3294   1.096   0.575   7.537
  880SOL     OW 3295   1.857   0.833   7.825
  880SOL    HW1 3296   1.899   0.769   7.889
  880SOL    HW2 3297   1.819   0.782   7.747
  881SOL     OW 3298   0.488   1.385   7.622
  881SOL    HW1 3299   0.401   1.370   7.669
  881SOL    HW2 3300   0.471   1.411   7.527
  882SOL     OW 3301   1.390   0.575   7.526
  882SOL    HW1 3302   1.336   0.554   7.607
  882SOL    HW2 3303   1.481   0.534   7.535
  883SOL     OW 3304   0.527   0.256   7.776
  883SOL    HW1 3305   0.554   0.197   7.701
  883SOL    HW2 3306   0.527   0.351   7.745
  884SOL     OW 3307   0.705   1.050   7.816
  884SOL    HW1 3308   0.691   1.057   7.915
  884SOL    HW2 3309   0.789   0.999   7.798
  885SOL     OW 3310   0.367   1.100   7.949
  885SOL    HW1 3311   0.360   1.183   7.893
  885SOL    HW2 3312   0.371   1.020   7.889
  886SOL     OW 3313   1.252   1.348   7.836
  886SOL    HW1 3314   1.302   1.425   7.876
  886SOL    HW2 3315   1.157   1.350   7.868
  887SOL     OW 3316   1.582   0.639   7.920
  887SOL    HW1 3317   1.551   0.700   7.993
  887SOL    HW2 3318   1.632   0.691   7.851
  888SOL     OW 3319   1.209   0.525   7.723
  888SOL    HW1 3320   1.222   0.441   7.777
  888SOL    HW2 3321   1.180   0.599   7.783
  889SOL     OW 3322   1.622   0.367   7.822
  889SOL    HW1 3323   1.624   0.291   7.886
  889SOL    HW2 3324   1.574   0.444   7.862
  890SOL     OW 3325   1.540   0.274   7.573
  890SOL    HW1 3326   1.479   0.199   7.596
  890SOL    HW2 3327   1.562   0.326   7.656
  891SOL     OW 3328   1.303   0.838   7.490
  891SOL    HW1 3329   1.337   0.745   7.505
  891SOL    HW2 3330   1.321   0.865   7.395
  892SOL     OW 3331   0.008   1.326   7.648
  892SOL    HW1 3332  -0.085   1.347   7.617
  892SOL    HW2 3333   0.018   1.227   7.661
  893SOL     OW 3334   0.815   0.572   7.773
  893SOL    HW1 3335   0.822   0.483   7.727
  893SOL    HW2 3336   0.721   0.606   7.765
  894SOL     OW 3337   0.473   0.500   7.639
  894SOL    HW1 3338   0.534   0.580   7.643
  894SOL    HW2 3339   0.378   0.531   7.646
  895SOL     OW 3340   1.302   0.855   7.757
  895SOL    HW1 3341   1.216   0.824   7.799
  895SOL    HW2 3342   1.298   0.841   7.658
  896SOL     OW 3343   1.726   0.135   7.971
  896SOL    HW1 3344   1.799   0.118   7.904
  896SOL    HW2 3345   1.695   0.048   8.009
  897SOL     OW 3346   1.388   1.573   7.925
  897SOL    HW1 3347   1.455   1.585   7.851
  897SOL    HW2 3348   1.348   1.662   7.948
  898SOL     OW 3349   0.672   1.616   7.602
  898SOL    HW1 3350   0.681   1.626   7.503
  898SOL    HW2 3351   0.632   1.527   7.623
  899SOL     OW 3352   1.194   1.612   7.479
  899SOL    HW1 3353   1.200   1.519   7.516
  899SOL    HW2 3354   1.135   1.612   7.399
  900SOL     OW 3355   0.916   0.910   7.739
  900SOL    HW1 3356   0.979   0.948   7.671
  900SOL    HW2 3357   0.956   0.827   7.778
  901SOL     OW 3358   1.504   1.607   7.492
  901SOL    HW1 3359   1.412   1.644   7.499
  901SOL    HW2 3360   1.542   1.627   7.402
  902SOL     OW 3361   0.590   1.487   7.939
  902SOL    HW1 3362   0.632   1.429   7.869
  902SOL    HW2 3363   0.546   1.566   7.895
  903SOL     OW 3364   0.255   1.348   7.738
  903SOL    HW1 3365   0.159   1.349   7.711
  903SOL    HW2 3366   0.267   1.401   7.822
  904SOL     OW 3367   0.075   0.345   7.481
  904SOL    HW1 3368  -0.017   0.317   7.452
  904SOL    HW2 3369   0.106   0.422   7.425
  905SOL     OW 3370   0.072   0.166   7.766
  905SOL    HW1 3371   0.055   0.249   7.712
  905SOL    HW2 3372   0.162   0.129   7.744
  906SOL     OW 3373   1.183   1.335   7.567
  906SOL    HW1 3374   1.084   1.324   7.569
  906SOL    HW2 3375   1.217   1.350   7.660
  907SOL     OW 3376   1.225   0.325   7.897
  907SOL    HW1 3377   1.290   0.251   7.886
  907SOL    HW2 3378   1.245   0.375   7.981
  908SOL     OW 3379   0.594   0.745   8.100
  908SOL    HW1 3380   0.644   0.830   8.081
  908SOL    HW2 3381   0.506   0.747   8.052
  909SOL     OW 3382   0.859   1.374   7.464
  909SOL    HW1 3383   0.813   1.389   7.552
  909SOL    HW2 3384   0.903   1.459   7.434
  910SOL     OW 3385   1.083   0.984   7.535
  910SOL    HW1 3386   1.060   1.037   7.453
  910SOL    HW2 3387   1.164   0.928   7.516
  911SOL     OW 3388   0.428   0.424   7.968
  911SOL    HW1 3389   0.458   0.352   7.906
  911SOL    HW2 3390   0.389   0.384   8.051
  912SOL     OW 3391   0.770   1.330   7.749
  912SOL    HW1 3392   0.724   1.243   7.766
  912SOL    HW2 3393   0.861   1.327   7.790
  913SOL     OW 3394   1.352   0.052   7.616
  913SOL    HW1 3395   1.387   0.011   7.532
  913SOL    HW2 3396   1.262   0.014   7.636
  914SOL     OW 3397   0.039   1.077   7.748
  914SOL    HW1 3398   0.138   1.066   7.739
  914SOL    HW2 3399  -0.001   0.991   7.780
  915SOL     OW 3400   0.875   1.646   7.785
  915SOL    HW1 3401   0.798   1.611   7.731
  915SOL    HW2 3402   0.843   1.717   7.847
  916SOL     OW 3403   0.230   2.490   0.113
  916SOL    HW1 3404   0.137   2.488   0.150
  916SOL    HW2 3405   0.231   2.451   0.021
  917SOL     OW 3406   0.225   2.137   0.996
  917SOL    HW1 3407   0.260   2.120   1.088
  917SOL    HW2 3408   0.137   2.092   0.984
  918SOL     OW 3409   0.019   2.230   0.647
  918SOL    HW1 3410  -0.063   2.273   0.686
  918SOL    HW2 3411  -0.009   2.157   0.584
  919SOL     OW 3412   0.569   3.137   1.165
  919SOL    HW1 3413   0.476   3.130   1.128
  919SOL    HW2 3414   0.580   3.226   1.209
  920SOL     OW 3415   1.555   3.373   0.703
  920SOL    HW1 3416   1.498   3.357   0.784
  920SOL    HW2 3417   1.496   3.383   0.623
  921SOL     OW 3418   1.135   2.565   0.717
  921SOL    HW1 3419   1.192   2.643   0.692
  921SOL    HW2 3420   1.075   2.591   0.793
  922SOL     OW 3421   1.755   2.469   0.231
  922SOL    HW1 3422   1.743   2.456   0.132
  922SOL    HW2 3423   1.725   2.388   0.280
  923SOL     OW 3424   0.768   3.006   1.023
  923SOL    HW1 3425   0.690   3.023   1.083
  923SOL    HW2 3426   0.802   3.093   0.987
  924SOL     OW 3427   0.850   2.660   1.823
  924SOL    HW1 3428   0.846   2.736   1.888
  924SOL    HW2 3429   0.872   2.696   1.732
  925SOL     OW 3430   0.685   2.874   0.665
  925SOL    HW1 3431   0.754   2.858   0.735
  925SOL    HW2 3432   0.612   2.931   0.703
  926SOL     OW 3433   0.686   3.023   1.803
  926SOL    HW1 3434   0.746   3.102   1.817
  926SOL    HW2 3435   0.600   3.054   1.762
  927SOL     OW 3436   0.335   3.297   1.061
  927SOL    HW1 3437   0.257   3.266   1.008
  927SOL    HW2 3438   0.393   3.355   1.004
  928SOL     OW 3439   1.460   3.367   1.339
  928SOL    HW1 3440   1.484   3.461   1.365
  928SOL    HW2 3441   1.444   3.313   1.421
  929SOL     OW 3442   0.438   2.254   1.499
  929SOL    HW1 3443   0.520   2.198   1.508
  929SOL    HW2 3444   0.357   2.196   1.503
  930SOL     OW 3445   1.603   2.309   0.737
  930SOL    HW1 3446   1.529   2.355   0.687
  930SOL    HW2 3447   1.654   2.377   0.790
  931SOL     OW 3448   0.231   3.575   0.483
  931SOL    HW1 3449   0.265   3.652   0.537
  931SOL    HW2 3450   0.275   3.575   0.393
  932SOL     OW 3451   1.127   3.203   1.690
  932SOL    HW1 3452   1.174   3.203   1.778
  932SOL    HW2 3453   1.079   3.116   1.679
  933SOL     OW 3454   0.230   3.296   0.538
  933SOL    HW1 3455   0.204   3.392   0.538
  933SOL    HW2 3456   0.159   3.242   0.583
  934SOL     OW 3457   0.240   2.953   0.886
  934SOL    HW1 3458   0.254   2.869   0.938
  934SOL    HW2 3459   0.185   3.017   0.941
  935SOL     OW 3460   0.620   3.648   1.439
  935SOL    HW1 3461   0.528   3.631   1.474
  935SOL    HW2 3462   0.648   3.740   1.465
  936SOL     OW 3463   0.606   2.826   0.123
  936SOL    HW1 3464   0.613   2.910   0.069
  936SOL    HW2 3465   0.652   2.839   0.211
  937SOL     OW 3466   1.594   1.976   1.480
  937SOL    HW1 3467   1.576   2.043   1.408
  937SOL    HW2 3468   1.591   2.022   1.569
  938SOL     OW 3469   0.122   2.505   0.563
  938SOL    HW1 3470   0.077   2.417   0.580
  938SOL    HW2 3471   0.121   2.559   0.647
  939SOL     OW 3472   1.842   3.629   0.359
  939SOL    HW1 3473   1.896   3.600   0.439
  939SOL    HW2 3474   1.872   3.719   0.330
  940SOL     OW 3475   0.027   3.458   0.117
  940SOL    HW1 3476   0.008   3.362   0.138
  940SOL    HW2 3477  -0.006   3.516   0.192
  941SOL     OW 3478   1.689   2.784   0.612
  941SOL    HW1 3479   1.784   2.755   0.620
  941SOL    HW2 3480   1.681   2.849   0.537
  942SOL     OW 3481   1.641   2.970   0.432
  942SOL    HW1 3482   1.727   2.972   0.380
  942SOL    HW2 3483   1.655   3.017   0.520
  943SOL     OW 3484   0.113   2.599   1.597
  943SOL    HW1 3485   0.201   2.586   1.642
  943SOL    HW2 3486   0.100   2.696   1.575
  944SOL     OW 3487   0.613   3.227   0.726
  944SOL    HW1 3488   0.564   3.140   0.735
  944SOL    HW2 3489   0.590   3.270   0.639
  945SOL     OW 3490   1.293   3.090   1.423
  945SOL    HW1 3491   1.330   3.017   1.365
  945SOL    HW2 3492   1.345   3.095   1.508
  946SOL     OW 3493   0.809   1.866   0.502
  946SOL    HW1 3494   0.849   1.957   0.493
  946SOL    HW2 3495   0.709   1.874   0.508
  947SOL     OW 3496   0.197   2.838   1.264
  947SOL    HW1 3497   0.286   2.793   1.250
  947SOL    HW2 3498   0.124   2.773   1.245
  948SOL     OW 3499   1.525   2.861   0.190
  948SOL    HW1 3500   1.462   2.785   0.203
  948SOL    HW2 3501   1.573   2.879   0.276
  949SOL     OW 3502   1.187   3.654   1.616
  949SOL    HW1 3503   1.211   3.714   1.540
  949SOL    HW2 3504   1.194   3.559   1.586
  950SOL     OW 3505   0.317   2.113   1.801
  950SOL    HW1 3506   0.388   2.184   1.807
  950SOL    HW2 3507   0.229   2.152   1.829
  951SOL     OW 3508   1.466   3.279   0.953
  951SOL    HW1 3509   1.407   3.285   1.033
  951SOL    HW2 3510   1.451   3.191   0.907
  952SOL     OW 3511   1.667   3.576   0.572
  952SOL    HW1 3512   1.626   3.553   0.484
  952SOL    HW2 3513   1.649   3.502   0.637
  953SOL     OW 3514   0.598   2.591   0.270
  953SOL    HW1 3515   0.622   2.660   0.202
  953SOL    HW2 3516   0.520   2.624   0.324
  954SOL     OW 3517   1.281   2.207   0.944
  954SOL    HW1 3518   1.195   2.157   0.931
  954SOL    HW2 3519   1.343   2.153   1.000
  955SOL     OW 3520   1.576   3.524   0.307
  955SOL    HW1 3521   1.665   3.570   0.310
  955SOL    HW2 3522   1.555   3.500   0.212
  956SOL     OW 3523   0.807   2.467   1.465
  956SOL    HW1 3524   0.760   2.464   1.554
  956SOL    HW2 3525   0.756   2.412   1.399
  957SOL     OW 3526   1.394   2.331   1.674
  957SOL    HW1 3527   1.374   2.374   1.762
  957SOL    HW2 3528   1.472   2.269   1.683
  958SOL     OW 3529   0.973   2.752   1.572
  958SOL    HW1 3530   1.019   2.668   1.543
  958SOL    HW2 3531   0.917   2.786   1.497
  959SOL     OW 3532   0.991   2.272   1.242
  959SOL    HW1 3533   0.914   2.306   1.296
  959SOL    HW2 3534   0.957   2.221   1.163
  960SOL     OW 3535   1.041   2.563   0.429
  960SOL    HW1 3536   1.067   2.559   0.525
  960SOL    HW2 3537   0.956   2.512   0.415
  961SOL     OW 3538   0.076   2.673   0.789
  961SOL    HW1 3539   0.175   2.661   0.798
  961SOL    HW2 3540   0.052   2.768   0.810
  962SOL     OW 3541   0.130   3.683   1.571
  962SOL    HW1 3542   0.120   3.668   1.670
  962SOL    HW2 3543   0.044   3.719   1.535
  963SOL     OW 3544   0.865   2.210   0.195
  963SOL    HW1 3545   0.924   2.273   0.146
  963SOL    HW2 3546   0.884   2.116   0.166
  964SOL     OW 3547   1.719   2.447   1.831
  964SOL    HW1 3548   1.693   2.536   1.795
  964SOL    HW2 3549   1.717   2.379   1.758
  965SOL     OW 3550   1.362   3.006   0.545
  965SOL    HW1 3551   1.445   2.977   0.497
  965SOL    HW2 3552   1.313   3.073   0.489
  966SOL     OW 3553   0.550   2.058   0.885
  966SOL    HW1 3554   0.545   2.053   0.985
  966SOL    HW2 3555   0.552   2.154   0.856
  967SOL     OW 3556   1.008   3.318   0.477
  967SOL    HW1 3557   0.962   3.390   0.425
  967SOL    HW2 3558   1.004   3.338   0.575
  968SOL     OW 3559   0.351   3.663   0.853
  968SOL    HW1 3560   0.401   3.577   0.859
  968SOL    HW2 3561   0.416   3.740   0.850
  969SOL     OW 3562   1.795   2.928   0.873
  969SOL    HW1 3563   1.733   2.913   0.797
  969SOL    HW2 3564   1.743   2.939   0.958
  970SOL     OW 3565   1.227   3.412   1.506
  970SOL    HW1 3566   1.233   3.335   1.570
  970SOL    HW2 3567   1.175   3.386   1.426
  971SOL     OW 3568   0.321   2.805   0.242
  971SOL    HW1 3569   0.403   2.844   0.200
  971SOL    HW2 3570   0.294   2.723   0.193
  972SOL     OW 3571   1.458   2.597   0.728
  972SOL    HW1 3572   1.453   2.532   0.803
  972SOL    HW2 3573   1.538   2.656   0.741
  973SOL     OW 3574   0.461   3.128   1.727
  973SOL    HW1 3575   0.411   3.129   1.641
  973SOL    HW2 3576   0.398   3.110   1.803
  974SOL     OW 3577   1.111   3.638   0.237
  974SOL    HW1 3578   1.051   3.576   0.287
  974SOL    HW2 3579   1.142   3.594   0.152
  975SOL     OW 3580   0.202   2.147   1.498
  975SOL    HW1 3581   0.122   2.207   1.485
  975SOL    HW2 3582   0.192   2.098   1.584
  976SOL     OW 3583   1.632   3.239   0.081
  976SOL    HW1 3584   1.600   3.333   0.071
  976SOL    HW2 3585   1.556   3.176   0.069
  977SOL     OW 3586   0.464   3.605   0.323
  977SOL    HW1 3587   0.497   3.644   0.409
  977SOL    HW2 3588   0.540   3.598   0.258
  978SOL     OW 3589   1.400   1.969   0.426
  978SOL    HW1 3590   1.376   1.932   0.336
  978SOL    HW2 3591   1.499   1.985   0.430
  979SOL     OW 3592   0.249   3.647   1.241
  979SOL    HW1 3593   0.306   3.582   1.291
  979SOL    HW2 3594   0.233   3.614   1.148
  980SOL     OW 3595   0.940   3.560   0.904
  980SOL    HW1 3596   1.020   3.503   0.925
  980SOL    HW2 3597   0.891   3.520   0.827
  981SOL     OW 3598   0.382   2.562   0.480
  981SOL    HW1 3599   0.427   2.472   0.477
  981SOL    HW2 3600   0.288   2.551   0.513
  982SOL     OW 3601   1.547   2.084   1.729
  982SOL    HW1 3602   1.542   2.121   1.821
  982SOL    HW2 3603   1.475   2.015   1.717
  983SOL     OW 3604   0.614   1.984   0.117
  983SOL    HW1 3605   0.712   1.962   0.124
  983SOL    HW2 3606   0.583   1.967   0.024
  984SOL     OW 3607   0.781   2.126   1.749
  984SOL    HW1 3608   0.848   2.065   1.792
  984SOL    HW2 3609   0.708   2.145   1.814
  985SOL     OW 3610   0.888   3.376   1.195
  985SOL    HW1 3611   0.865   3.351   1.101
  985SOL    HW2 3612   0.949   3.307   1.234
  986SOL     OW 3613   1.351   2.452   1.433
  986SOL    HW1 3614   1.379   2.409   1.518
  986SOL    HW2 3615   1.376   2.548   1.434
  987SOL     OW 3616   0.803   3.264   0.924
  987SOL    HW1 3617   0.893   3.278   0.882
  987SOL    HW2 3618   0.732   3.266   0.853
  988SOL     OW 3619   0.922   2.365   0.899
  988SOL    HW1 3620   0.897   2.356   0.803
  988SOL    HW2 3621   0.970   2.283   0.930
  989SOL     OW 3622   0.539   1.926   0.512
  989SOL    HW1 3623   0.458   1.927   0.570
  989SOL    HW2 3624   0.542   2.009   0.457
  990SOL     OW 3625   1.434   3.050   0.041
  990SOL    HW1 3626   1.466   2.974   0.098
  990SOL    HW2 3627   1.342   3.077   0.071
  991SOL     OW 3628   0.297   1.897   0.171
  991SOL    HW1 3629   0.346   1.981   0.150
  991SOL    HW2 3630   0.359   1.832   0.216
  992SOL     OW 3631   0.935   2.098   0.480
  992SOL    HW1 3632   0.887   2.139   0.402
  992SOL    HW2 3633   1.034   2.096   0.461
  993SOL     OW 3634   1.076   2.545   1.464
  993SOL    HW1 3635   0.996   2.484   1.467
  993SOL    HW2 3636   1.157   2.492   1.440
  994SOL     OW 3637   1.227   3.432   0.793
  994SOL    HW1 3638   1.248   3.506   0.728
  994SOL    HW2 3639   1.295   3.432   0.866
  995SOL     OW 3640   0.459   3.014   0.741
  995SOL    HW1 3641   0.388   2.987   0.806
  995SOL    HW2 3642   0.433   2.986   0.648
  996SOL     OW 3643   1.271   3.659   0.591
  996SOL    HW1 3644   1.315   3.723   0.527
  996SOL    HW2 3645   1.221   3.711   0.661
  997SOL     OW 3646   1.032   2.411   0.016
  997SOL    HW1 3647   0.991   2.493  -0.023
  997SOL    HW2 3648   1.096   2.437   0.089
  998SOL     OW 3649   0.078   2.418   1.386
  998SOL    HW1 3650   0.170   2.417   1.345
  998SOL    HW2 3651   0.072   2.492   1.453
  999SOL     OW 3652   0.561   2.084   1.147
  999SOL    HW1 3653   0.599   2.000   1.184
  999SOL    HW2 3654   0.473   2.103   1.191
 1000SOL     OW 3655   0.866   2.316   0.642
 1000SOL    HW1 3656   0.834   2.388   0.580
 1000SOL    HW2 3657   0.890   2.235   0.589
 1001SOL     OW 3658   1.017   1.901   0.753
 1001SOL    HW1 3659   0.945   1.906   0.684
 1001SOL    HW2 3660   0.993   1.832   0.822
 1002SOL     OW 3661   1.429   3.035   0.867
 1002SOL    HW1 3662   1.374   2.951   0.860
 1002SOL    HW2 3663   1.455   3.064   0.775
 1003SOL     OW 3664   1.466   2.452   0.992
 1003SOL    HW1 3665   1.436   2.357   0.999
 1003SOL    HW2 3666   1.539   2.468   1.058
 1004SOL     OW 3667   1.857   2.695   0.377
 1004SOL    HW1 3668   1.899   2.631   0.441
 1004SOL    HW2 3669   1.819   2.644   0.299
 1005SOL     OW 3670   0.488   3.247   0.174
 1005SOL    HW1 3671   0.401   3.232   0.221
 1005SOL    HW2 3672   0.471   3.273   0.079
 1006SOL     OW 3673   1.664   3.142   0.657
 1006SOL    HW1 3674   1.763   3.150   0.671
 1006SOL    HW2 3675   1.619   3.226   0.688
 1007SOL     OW 3676   1.390   2.437   0.078
 1007SOL    HW1 3677   1.336   2.416   0.159
 1007SOL    HW2 3678   1.481   2.396   0.087
 1008SOL     OW 3679   0.527   2.118   0.328
 1008SOL    HW1 3680   0.554   2.059   0.253
 1008SOL    HW2 3681   0.527   2.213   0.297
 1009SOL     OW 3682   1.754   3.085   1.588
 1009SOL    HW1 3683   1.845   3.046   1.575
 1009SOL    HW2 3684   1.762   3.181   1.612
 1010SOL     OW 3685   1.064   3.209   1.340
 1010SOL    HW1 3686   0.984   3.186   1.395
 1010SOL    HW2 3687   1.147   3.183   1.389
 1011SOL     OW 3688   1.592   3.491   1.625
 1011SOL    HW1 3689   1.619   3.525   1.535
 1011SOL    HW2 3690   1.671   3.453   1.671
 1012SOL     OW 3691   1.111   3.057   1.100
 1012SOL    HW1 3692   1.071   3.101   1.181
 1012SOL    HW2 3693   1.070   3.094   1.017
 1013SOL     OW 3694   1.638   2.961   1.079
 1013SOL    HW1 3695   1.643   3.042   1.138
 1013SOL    HW2 3696   1.552   2.963   1.028
 1014SOL     OW 3697   0.915   1.951   1.402
 1014SOL    HW1 3698   0.940   1.931   1.307
 1014SOL    HW2 3699   0.987   2.007   1.444
 1015SOL     OW 3700   0.980   2.978   1.719
 1015SOL    HW1 3701   0.881   2.984   1.729
 1015SOL    HW2 3702   1.003   2.898   1.663
 1016SOL     OW 3703   0.705   2.912   0.368
 1016SOL    HW1 3704   0.691   2.919   0.467
 1016SOL    HW2 3705   0.789   2.861   0.350
 1017SOL     OW 3706   0.410   2.675   1.251
 1017SOL    HW1 3707   0.496   2.687   1.301
 1017SOL    HW2 3708   0.368   2.588   1.278
 1018SOL     OW 3709   1.274   2.248   1.262
 1018SOL    HW1 3710   1.295   2.322   1.326
 1018SOL    HW2 3711   1.185   2.265   1.219
 1019SOL     OW 3712   0.064   3.426   1.331
 1019SOL    HW1 3713   0.018   3.508   1.297
 1019SOL    HW2 3714   0.162   3.445   1.340
 1020SOL     OW 3715   0.367   2.962   0.501
 1020SOL    HW1 3716   0.360   3.045   0.445
 1020SOL    HW2 3717   0.371   2.882   0.441
 1021SOL     OW 3718   0.566   2.399   0.865
 1021SOL    HW1 3719   0.578   2.465   0.791
 1021SOL    HW2 3720   0.612   2.433   0.948
 1022SOL     OW 3721   1.252   3.210   0.388
 1022SOL    HW1 3722   1.302   3.287   0.428
 1022SOL    HW2 3723   1.157   3.212   0.420
 1023SOL     OW 3724   1.272   3.307   1.142
 1023SOL    HW1 3725   1.319   3.320   1.229
 1023SOL    HW2 3726   1.206   3.233   1.151
 1024SOL     OW 3727   1.582   2.501   0.472
 1024SOL    HW1 3728   1.551   2.562   0.545
 1024SOL    HW2 3729   1.632   2.553   0.403
 1025SOL     OW 3730   0.354   3.372   1.329
 1025SOL    HW1 3731   0.333   3.328   1.242
 1025SOL    HW2 3732   0.451   3.398   1.332
 1026SOL     OW 3733   0.402   2.613   1.598
 1026SOL    HW1 3734   0.470   2.668   1.551
 1026SOL    HW2 3735   0.442   2.525   1.625
 1027SOL     OW 3736   1.587   2.641   1.670
 1027SOL    HW1 3737   1.495   2.679   1.665
 1027SOL    HW2 3738   1.647   2.688   1.605
 1028SOL     OW 3739   1.013   1.967   1.770
 1028SOL    HW1 3740   1.019   2.052   1.718
 1028SOL    HW2 3741   1.045   1.891   1.713
 1029SOL     OW 3742   0.504   1.912   1.740
 1029SOL    HW1 3743   0.462   1.855   1.670
 1029SOL    HW2 3744   0.438   1.981   1.772
 1030SOL     OW 3745   0.573   2.732   1.029
 1030SOL    HW1 3746   0.617   2.821   1.020
 1030SOL    HW2 3747   0.510   2.732   1.106
 1031SOL     OW 3748   1.360   2.724   1.045
 1031SOL    HW1 3749   1.285   2.724   0.979
 1031SOL    HW2 3750   1.397   2.632   1.054
 1032SOL     OW 3751   1.209   2.387   0.275
 1032SOL    HW1 3752   1.222   2.303   0.329
 1032SOL    HW2 3753   1.180   2.461   0.335
 1033SOL     OW 3754   0.307   2.075   1.231
 1033SOL    HW1 3755   0.284   2.112   1.321
 1033SOL    HW2 3756   0.277   1.980   1.225
 1034SOL     OW 3757   0.037   3.172   1.282
 1034SOL    HW1 3758   0.090   3.123   1.350
 1034SOL    HW2 3759   0.059   3.270   1.287
 1035SOL     OW 3760   0.732   2.496   1.064
 1035SOL    HW1 3761   0.791   2.470   0.988
 1035SOL    HW2 3762   0.704   2.592   1.053
 1036SOL     OW 3763   1.728   2.797   1.854
 1036SOL    HW1 3764   1.682   2.790   1.765
 1036SOL    HW2 3765   1.666   2.841   1.920
 1037SOL     OW 3766   0.307   1.925   0.618
 1037SOL    HW1 3767   0.296   2.019   0.651
 1037SOL    HW2 3768   0.302   1.862   0.695
 1038SOL     OW 3769   1.622   2.229   0.374
 1038SOL    HW1 3770   1.624   2.153   0.438
 1038SOL    HW2 3771   1.574   2.306   0.414
 1039SOL     OW 3772   1.023   2.628   0.966
 1039SOL    HW1 3773   1.038   2.649   1.062
 1039SOL    HW2 3774   0.993   2.533   0.957
 1040SOL     OW 3775   0.980   3.435   1.700
 1040SOL    HW1 3776   0.960   3.479   1.612
 1040SOL    HW2 3777   1.019   3.344   1.684
 1041SOL     OW 3778   1.859   3.380   1.605
 1041SOL    HW1 3779   1.873   3.407   1.510
 1041SOL    HW2 3780   1.942   3.402   1.658
 1042SOL     OW 3781   0.350   2.760   1.804
 1042SOL    HW1 3782   0.426   2.804   1.852
 1042SOL    HW2 3783   0.385   2.713   1.722
 1043SOL     OW 3784   1.540   2.136   0.125
 1043SOL    HW1 3785   1.479   2.061   0.148
 1043SOL    HW2 3786   1.562   2.188   0.208
 1044SOL     OW 3787   1.303   2.700   0.042
 1044SOL    HW1 3788   1.337   2.607   0.057
 1044SOL    HW2 3789   1.321   2.727  -0.053
 1045SOL     OW 3790   1.068   3.195   0.849
 1045SOL    HW1 3791   1.075   3.111   0.794
 1045SOL    HW2 3792   1.130   3.264   0.813
 1046SOL     OW 3793   0.319   2.672   0.949
 1046SOL    HW1 3794   0.412   2.708   0.954
 1046SOL    HW2 3795   0.313   2.587   1.001
 1047SOL     OW 3796   0.339   2.371   1.006
 1047SOL    HW1 3797   0.287   2.288   0.989
 1047SOL    HW2 3798   0.416   2.376   0.942
 1048SOL     OW 3799   1.138   2.242   1.678
 1048SOL    HW1 3800   1.093   2.305   1.742
 1048SOL    HW2 3801   1.231   2.273   1.661
 1049SOL     OW 3802   1.160   2.069   1.477
 1049SOL    HW1 3803   1.160   2.133   1.554
 1049SOL    HW2 3804   1.188   2.117   1.394
 1050SOL     OW 3805   0.008   3.188   0.200
 1050SOL    HW1 3806  -0.085   3.209   0.169
 1050SOL    HW2 3807   0.018   3.089   0.213
 1051SOL     OW 3808   0.088   3.663   0.927
 1051SOL    HW1 3809   0.046   3.577   0.900
 1051SOL    HW2 3810   0.182   3.666   0.893
 1052SOL     OW 3811   0.504   3.430   0.910
 1052SOL    HW1 3812   0.570   3.504   0.919
 1052SOL    HW2 3813   0.548   3.351   0.868
 1053SOL     OW 3814   1.002   2.658   1.238
 1053SOL    HW1 3815   1.043   2.626   1.324
 1053SOL    HW2 3816   0.906   2.631   1.235
 1054SOL     OW 3817   0.040   2.406   1.114
 1054SOL    HW1 3818   0.125   2.373   1.073
 1054SOL    HW2 3819   0.053   2.421   1.212
 1055SOL     OW 3820   0.189   2.382   1.722
 1055SOL    HW1 3821   0.248   2.342   1.652
 1055SOL    HW2 3822   0.131   2.453   1.681
 1056SOL     OW 3823   1.369   2.812   1.660
 1056SOL    HW1 3824   1.408   2.901   1.680
 1056SOL    HW2 3825   1.379   2.792   1.563
 1057SOL     OW 3826   0.815   2.434   0.325
 1057SOL    HW1 3827   0.822   2.345   0.279
 1057SOL    HW2 3828   0.721   2.468   0.317
 1058SOL     OW 3829   1.657   2.466   1.206
 1058SOL    HW1 3830   1.619   2.397   1.268
 1058SOL    HW2 3831   1.739   2.430   1.162
 1059SOL     OW 3832   0.252   3.426   1.744
 1059SOL    HW1 3833   0.222   3.483   1.820
 1059SOL    HW2 3834   0.245   3.329   1.770
 1060SOL     OW 3835   0.671   2.326   1.269
 1060SOL    HW1 3836   0.637   2.237   1.239
 1060SOL    HW2 3837   0.697   2.380   1.189
 1061SOL     OW 3838   0.930   3.540   1.465
 1061SOL    HW1 3839   0.906   3.522   1.370
 1061SOL    HW2 3840   0.960   3.634   1.475
 1062SOL     OW 3841   0.473   2.362   0.191
 1062SOL    HW1 3842   0.534   2.442   0.195
 1062SOL    HW2 3843   0.378   2.393   0.198
 1063SOL     OW 3844   0.159   2.999   1.466
 1063SOL    HW1 3845   0.181   2.938   1.542
 1063SOL    HW2 3846   0.169   2.950   1.380
 1064SOL     OW 3847   1.347   2.921   1.234
 1064SOL    HW1 3848   1.371   2.858   1.160
 1064SOL    HW2 3849   1.257   2.961   1.216
 1065SOL     OW 3850   1.302   2.717   0.309
 1065SOL    HW1 3851   1.216   2.686   0.351
 1065SOL    HW2 3852   1.298   2.703   0.210
 1066SOL     OW 3853   1.759   3.609   1.154
 1066SOL    HW1 3854   1.820   3.639   1.081
 1066SOL    HW2 3855   1.721   3.520   1.132
 1067SOL     OW 3856   1.252   3.593   1.128
 1067SOL    HW1 3857   1.336   3.598   1.074
 1067SOL    HW2 3858   1.229   3.497   1.146
 1068SOL     OW 3859   0.083   3.120   1.022
 1068SOL    HW1 3860   0.078   3.119   1.122
 1068SOL    HW2 3861   0.000   3.079   0.984
 1069SOL     OW 3862   0.688   3.524   1.716
 1069SOL    HW1 3863   0.632   3.605   1.725
 1069SOL    HW2 3864   0.740   3.528   1.630
 1070SOL     OW 3865   0.903   1.948   0.133
 1070SOL    HW1 3866   0.954   1.949   0.047
 1070SOL    HW2 3867   0.959   1.906   0.204
 1071SOL     OW 3868   1.726   1.997   0.523
 1071SOL    HW1 3869   1.799   1.980   0.456
 1071SOL    HW2 3870   1.695   1.910   0.561
 1072SOL     OW 3871   1.388   3.435   0.477
 1072SOL    HW1 3872   1.455   3.447   0.403
 1072SOL    HW2 3873   1.348   3.524   0.500
 1073SOL     OW 3874   0.130   3.656   1.851
 1073SOL    HW1 3875   0.089   3.582   1.904
 1073SOL    HW2 3876   0.194   3.707   1.909
 1074SOL     OW 3877   1.280   2.789   0.672
 1074SOL    HW1 3878   1.340   2.708   0.674
 1074SOL    HW2 3879   1.320   2.858   0.612
 1075SOL     OW 3880   0.830   3.135   1.422
 1075SOL    HW1 3881   0.825   3.168   1.517
 1075SOL    HW2 3882   0.744   3.154   1.376
 1076SOL     OW 3883   0.672   3.478   0.154
 1076SOL    HW1 3884   0.681   3.488   0.055
 1076SOL    HW2 3885   0.632   3.389   0.175
 1077SOL     OW 3886   1.650   3.582   1.394
 1077SOL    HW1 3887   1.703   3.592   1.310
 1077SOL    HW2 3888   1.623   3.672   1.428
 1078SOL     OW 3889   1.841   2.037   0.963
 1078SOL    HW1 3890   1.880   1.952   0.927
 1078SOL    HW2 3891   1.743   2.039   0.944
 1079SOL     OW 3892   0.263   2.188   0.720
 1079SOL    HW1 3893   0.184   2.239   0.686
 1079SOL    HW2 3894   0.254   2.173   0.818
 1080SOL     OW 3895   1.194   3.474   0.031
 1080SOL    HW1 3896   1.200   3.381   0.068
 1080SOL    HW2 3897   1.135   3.474  -0.049
 1081SOL     OW 3898   0.822   2.864   1.372
 1081SOL    HW1 3899   0.862   2.863   1.280
 1081SOL    HW2 3900   0.832   2.956   1.412
 1082SOL     OW 3901   0.916   2.772   0.291
 1082SOL    HW1 3902   0.979   2.810   0.223
 1082SOL    HW2 3903   0.956   2.689   0.330
 1083SOL     OW 3904   1.504   3.469   0.044
 1083SOL    HW1 3905   1.412   3.506   0.051
 1083SOL    HW2 3906   1.542   3.489  -0.046
 1084SOL     OW 3907   0.372   3.150   1.490
 1084SOL    HW1 3908   0.359   3.243   1.456
 1084SOL    HW2 3909   0.288   3.098   1.477
 1085SOL     OW 3910   1.614   3.154   1.289
 1085SOL    HW1 3911   1.674   3.157   1.369
 1085SOL    HW2 3912   1.539   3.218   1.302
 1086SOL     OW 3913   1.039   2.960   0.696
 1086SOL    HW1 3914   0.969   2.913   0.750
 1086SOL    HW2 3915   1.098   2.892   0.653
 1087SOL     OW 3916   1.014   2.098   0.971
 1087SOL    HW1 3917   1.006   2.062   0.878
 1087SOL    HW2 3918   1.012   2.022   1.036
 1088SOL     OW 3919   0.590   3.349   0.491
 1088SOL    HW1 3920   0.632   3.291   0.421
 1088SOL    HW2 3921   0.546   3.428   0.447
 1089SOL     OW 3922   1.709   2.247   1.381
 1089SOL    HW1 3923   1.782   2.316   1.385
 1089SOL    HW2 3924   1.737   2.172   1.322
 1090SOL     OW 3925   0.255   3.210   0.290
 1090SOL    HW1 3926   0.159   3.211   0.263
 1090SOL    HW2 3927   0.267   3.263   0.374
 1091SOL     OW 3928   0.105   2.875   1.726
 1091SOL    HW1 3929   0.028   2.842   1.780
 1091SOL    HW2 3930   0.190   2.845   1.768
 1092SOL     OW 3931   0.672   2.065   1.489
 1092SOL    HW1 3932   0.762   2.049   1.449
 1092SOL    HW2 3933   0.680   2.070   1.588
 1093SOL     OW 3934   0.075   2.207   0.033
 1093SOL    HW1 3935  -0.017   2.179   0.004
 1093SOL    HW2 3936   0.106   2.284  -0.023
 1094SOL     OW 3937   1.440   2.718   1.398
 1094SOL    HW1 3938   1.383   2.770   1.335
 1094SOL    HW2 3939   1.536   2.730   1.374
 1095SOL     OW 3940   0.072   2.028   0.318
 1095SOL    HW1 3941   0.055   2.111   0.264
 1095SOL    HW2 3942   0.162   1.991   0.296
 1096SOL     OW 3943   1.183   3.197   0.119
 1096SOL    HW1 3944   1.084   3.186   0.121
 1096SOL    HW2 3945   1.217   3.212   0.212
 1097SOL     OW 3946   0.613   2.704   1.431
 1097SOL    HW1 3947   0.669   2.785   1.414
 1097SOL    HW2 3948   0.672   2.624   1.434
 1098SOL     OW 3949   1.493   3.629   0.959
 1098SOL    HW1 3950   1.526   3.693   0.890
 1098SOL    HW2 3951   1.559   3.623   1.034
 1099SOL     OW 3952   0.716   2.427   1.708
 1099SOL    HW1 3953   0.735   2.492   1.782
 1099SOL    HW2 3954   0.776   2.347   1.717
 1100SOL     OW 3955   1.450   3.082   1.633
 1100SOL    HW1 3956   1.441   3.072   1.732
 1100SOL    HW2 3957   1.546   3.075   1.607
 1101SOL     OW 3958   0.390   3.603   1.560
 1101SOL    HW1 3959   0.299   3.644   1.558
 1101SOL    HW2 3960   0.383   3.509   1.592
 1102SOL     OW 3961   1.674   2.745   1.254
 1102SOL    HW1 3962   1.647   2.656   1.217
 1102SOL    HW2 3963   1.675   2.813   1.181
 1103SOL     OW 3964   1.225   2.187   0.449
 1103SOL    HW1 3965   1.290   2.113   0.438
 1103SOL    HW2 3966   1.245   2.237   0.533
 1104SOL     OW 3967   0.594   2.607   0.652
 1104SOL    HW1 3968   0.644   2.692   0.633
 1104SOL    HW2 3969   0.506   2.609   0.604
 1105SOL     OW 3970   1.777   2.204   1.642
 1105SOL    HW1 3971   1.760   2.235   1.548
 1105SOL    HW2 3972   1.693   2.167   1.680
 1106SOL     OW 3973   1.730   2.796   1.517
 1106SOL    HW1 3974   1.768   2.887   1.532
 1106SOL    HW2 3975   1.722   2.779   1.418
 1107SOL     OW 3976   0.859   3.236   0.016
 1107SOL    HW1 3977   0.813   3.251   0.104
 1107SOL    HW2 3978   0.903   3.321  -0.014
 1108SOL     OW 3979   0.661   3.652   0.953
 1108SOL    HW1 3980   0.615   3.740   0.940
 1108SOL    HW2 3981   0.760   3.664   0.946
 1109SOL     OW 3982   0.859   2.818   0.861
 1109SOL    HW1 3983   0.913   2.749   0.909
 1109SOL    HW2 3984   0.827   2.887   0.927
 1110SOL     OW 3985   1.083   2.846   0.087
 1110SOL    HW1 3986   1.060   2.899   0.005
 1110SOL    HW2 3987   1.164   2.790   0.068
 1111SOL     OW 3988   1.861   3.431   0.851
 1111SOL    HW1 3989   1.790   3.419   0.781
 1111SOL    HW2 3990   1.862   3.352   0.911
 1112SOL     OW 3991   0.221   3.176   1.844
 1112SOL    HW1 3992   0.156   3.103   1.823
 1112SOL    HW2 3993   0.225   3.190   1.942
 1113SOL     OW 3994   0.079   3.102   0.653
 1113SOL    HW1 3995   0.078   3.055   0.741
 1113SOL    HW2 3996   0.161   3.074   0.602
 1114SOL     OW 3997   0.672   3.253   1.624
 1114SOL    HW1 3998   0.594   3.203   1.662
 1114SOL    HW2 3999   0.669   3.348   1.655
 1115SOL     OW 4000   1.824   2.054   1.227
 1115SOL    HW1 4001   1.820   1.964   1.271
 1115SOL    HW2 4002   1.827   2.043   1.128
 1116SOL     OW 4003   0.428   2.286   0.520
 1116SOL    HW1 4004   0.458   2.214   0.458
 1116SOL    HW2 4005   0.389   2.246   0.603
 1117SOL     OW 4006   1.705   3.349   1.104
 1117SOL    HW1 4007   1.612   3.324   1.077
 1117SOL    HW2 4008   1.731   3.299   1.186
 1118SOL     OW 4009   0.317   2.409   1.280
 1118SOL    HW1 4010   0.355   2.350   1.352
 1118SOL    HW2 4011   0.357   2.383   1.192
 1119SOL     OW 4012   0.812   3.448   0.687
 1119SOL    HW1 4013   0.844   3.458   0.593
 1119SOL    HW2 4014   0.733   3.386   0.689
 1120SOL     OW 4015   1.424   2.076   1.112
 1120SOL    HW1 4016   1.476   2.011   1.167
 1120SOL    HW2 4017   1.375   2.139   1.173
 1121SOL     OW 4018   1.001   1.896   1.154
 1121SOL    HW1 4019   0.938   1.824   1.123
 1121SOL    HW2 4020   1.094   1.860   1.154
 1122SOL     OW 4021   0.770   3.192   0.301
 1122SOL    HW1 4022   0.724   3.105   0.318
 1122SOL    HW2 4023   0.861   3.189   0.342
 1123SOL     OW 4024   0.618   3.429   1.284
 1123SOL    HW1 4025   0.613   3.511   1.341
 1123SOL    HW2 4026   0.707   3.426   1.239
 1124SOL     OW 4027   1.352   1.914   0.168
 1124SOL    HW1 4028   1.387   1.873   0.084
 1124SOL    HW2 4029   1.262   1.876   0.188
 1125SOL     OW 4030   1.300   2.315   0.691
 1125SOL    HW1 4031   1.241   2.395   0.695
 1125SOL    HW2 4032   1.315   2.280   0.784
 1126SOL     OW 4033   1.593   2.083   0.882
 1126SOL    HW1 4034   1.509   2.082   0.936
 1126SOL    HW2 4035   1.595   2.166   0.826
 1127SOL     OW 4036   0.039   2.939   0.300
 1127SOL    HW1 4037   0.138   2.928   0.291
 1127SOL    HW2 4038  -0.001   2.853   0.332
 1128SOL     OW 4039   0.875   3.508   0.337
 1128SOL    HW1 4040   0.798   3.473   0.283
 1128SOL    HW2 4041   0.843   3.579   0.399
 1129SOL     OW 4042   0.230   2.490   1.975
 1129SOL    HW1 4043   0.137   2.488   2.012
 1129SOL    HW2 4044   0.231   2.451   1.883
 1130SOL     OW 4045   0.225   2.137   2.858
 1130SOL    HW1 4046   0.260   2.120   2.950
 1130SOL    HW2 4047   0.137   2.092   2.846
 1131SOL     OW 4048   0.019   2.230   2.509
 1131SOL    HW1 4049  -0.063   2.273   2.548
 1131SOL    HW2 4050  -0.009   2.157   2.446
 1132SOL     OW 4051   0.569   3.137   3.027
 1132SOL    HW1 4052   0.476   3.130   2.990
 1132SOL    HW2 4053   0.580   3.226   3.071
 1133SOL     OW 4054   1.555   3.373   2.565
 1133SOL    HW1 4055   1.498   3.357   2.646
 1133SOL    HW2 4056   1.496   3.383   2.485
 1134SOL     OW 4057   1.135   2.565   2.579
 1134SOL    HW1 4058   1.192   2.643   2.554
 1134SOL    HW2 4059   1.075   2.591   2.655
 1135SOL     OW 4060   1.755   2.469   2.093
 1135SOL    HW1 4061   1.743   2.456   1.994
 1135SOL    HW2 4062   1.725   2.388   2.142
 1136SOL     OW 4063   0.768   3.006   2.885
 1136SOL    HW1 4064   0.690   3.023   2.945
 1136SOL    HW2 4065   0.802   3.093   2.849
 1137SOL     OW 4066   0.850   2.660   3.685
 1137SOL    HW1 4067   0.846   2.736   3.750
 1137SOL    HW2 4068   0.872   2.696   3.594
 1138SOL     OW 4069   0.685   2.874   2.527
 1138SOL    HW1 4070   0.754   2.858   2.597
 1138SOL    HW2 4071   0.612   2.931   2.565
 1139SOL     OW 4072   0.686   3.023   3.665
 1139SOL    HW1 4073   0.746   3.102   3.679
 1139SOL    HW2 4074   0.600   3.054   3.624
 1140SOL     OW 4075   0.335   3.297   2.923
 1140SOL    HW1 4076   0.257   3.266   2.870
 1140SOL    HW2 4077   0.393   3.355   2.866
 1141SOL     OW 4078   1.460   3.367   3.201
 1141SOL    HW1 4079   1.484   3.461   3.227
 1141SOL    HW2 4080   1.444   3.313   3.283
 1142SOL     OW 4081   0.438   2.254   3.361
 1142SOL    HW1 4082   0.520   2.198   3.370
 1142SOL    HW2 4083   0.357   2.196   3.365
 1143SOL     OW 4084   1.603   2.309   2.599
 1143SOL    HW1 4085   1.529   2.355   2.549
 1143SOL    HW2 4086   1.654   2.377   2.652
 1144SOL     OW 4087   0.231   3.575   2.345
 1144SOL    HW1 4088   0.265   3.652   2.399
 1144SOL    HW2 4089   0.275   3.575   2.255
 1145SOL     OW 4090   1.127   3.203   3.552
 1145SOL    HW1 4091   1.174   3.203   3.640
 1145SOL    HW2 4092   1.079   3.116   3.541
 1146SOL     OW 4093   0.230   3.296   2.400
 1146SOL    HW1 4094   0.204   3.392   2.400
 1146SOL    HW2 4095   0.159   3.242   2.445
 1147SOL     OW 4096   0.240   2.953   2.748
 1147SOL    HW1 4097   0.254   2.869   2.800
 1147SOL    HW2 4098   0.185   3.017   2.803
 1148SOL     OW 4099   0.620   3.648   3.301
 1148SOL    HW1 4100   0.528   3.631   3.336
 1148SOL    HW2 4101   0.648   3.740   3.327
 1149SOL     OW 4102   0.606   2.826   1.985
 1149SOL    HW1 4103   0.613   2.910   1.931
 1149SOL    HW2 4104   0.652   2.839   2.073
 1150SOL     OW 4105   1.594   1.976   3.342
 1150SOL    HW1 4106   1.576   2.043   3.270
 1150SOL    HW2 4107   1.591   2.022   3.431
 1151SOL     OW 4108   0.122   2.505   2.425
 1151SOL    HW1 4109   0.077   2.417   2.442
 1151SOL    HW2 4110   0.121   2.559   2.509
 1152SOL     OW 4111   1.842   3.629   2.221
 1152SOL    HW1 4112   1.896   3.600   2.301
 1152SOL    HW2 4113   1.872   3.719   2.192
 1153SOL     OW 4114   0.027   3.458   1.979
 1153SOL    HW1 4115   0.008   3.362   2.000
 1153SOL    HW2 4116  -0.006   3.516   2.054
 1154SOL     OW 4117   1.689   2.784   2.474
 1154SOL    HW1 4118   1.784   2.755   2.482
 1154SOL    HW2 4119   1.681   2.849   2.399
 1155SOL     OW 4120   1.641   2.970   2.294
 1155SOL    HW1 4121   1.727   2.972   2.242
 1155SOL    HW2 4122   1.655   3.017   2.382
 1156SOL     OW 4123   0.113   2.599   3.459
 1156SOL    HW1 4124   0.201   2.586   3.504
 1156SOL    HW2 4125   0.100   2.696   3.437
 1157SOL     OW 4126   0.613   3.227   2.588
 1157SOL    HW1 4127   0.564   3.140   2.597
 1157SOL    HW2 4128   0.590   3.270   2.501
 1158SOL     OW 4129   1.293   3.090   3.285
 1158SOL    HW1 4130   1.330   3.017   3.227
 1158SOL    HW2 4131   1.345   3.095   3.370
 1159SOL     OW 4132   0.809   1.866   2.364
 1159SOL    HW1 4133   0.849   1.957   2.355
 1159SOL    HW2 4134   0.709   1.874   2.370
 1160SOL     OW 4135   0.197   2.838   3.126
 1160SOL    HW1 4136   0.286   2.793   3.112
 1160SOL    HW2 4137   0.124   2.773   3.107
 1161SOL     OW 4138   1.525   2.861   2.052
 1161SOL    HW1 4139   1.462   2.785   2.065
 1161SOL    HW2 4140   1.573   2.879   2.138
 1162SOL     OW 4141   1.187   3.654   3.478
 1162SOL    HW1 4142   1.211   3.714   3.402
 1162SOL    HW2 4143   1.194   3.559   3.448
 1163SOL     OW 4144   0.317   2.113   3.663
 1163SOL    HW1 4145   0.388   2.184   3.669
 1163SOL    HW2 4146   0.229   2.152   3.691
 1164SOL     OW 4147   1.466   3.279   2.815
 1164SOL    HW1 4148   1.407   3.285   2.895
 1164SOL    HW2 4149   1.451   3.191   2.769
 1165SOL     OW 4150   1.667   3.576   2.434
 1165SOL    HW1 4151   1.626   3.553   2.346
 1165SOL    HW2 4152   1.649   3.502   2.499
 1166SOL     OW 4153   0.598   2.591   2.132
 1166SOL    HW1 4154   0.622   2.660   2.064
 1166SOL    HW2 4155   0.520   2.624   2.186
 1167SOL     OW 4156   1.281   2.207   2.806
 1167SOL    HW1 4157   1.195   2.157   2.793
 1167SOL    HW2 4158   1.343   2.153   2.862
 1168SOL     OW 4159   1.576   3.524   2.169
 1168SOL    HW1 4160   1.665   3.570   2.172
 1168SOL    HW2 4161   1.555   3.500   2.074
 1169SOL     OW 4162   0.807   2.467   3.327
 1169SOL    HW1 4163   0.760   2.464   3.416
 1169SOL    HW2 4164   0.756   2.412   3.261
 1170SOL     OW 4165   1.394   2.331   3.536
 1170SOL    HW1 4166   1.374   2.374   3.624
 1170SOL    HW2 4167   1.472   2.269   3.545
 1171SOL     OW 4168   0.973   2.752   3.434
 1171SOL    HW1 4169   1.019   2.668   3.405
 1171SOL    HW2 4170   0.917   2.786   3.359
 1172SOL     OW 4171   0.991   2.272   3.104
 1172SOL    HW1 4172   0.914   2.306   3.158
 1172SOL    HW2 4173   0.957   2.221   3.025
 1173SOL     OW 4174   1.041   2.563   2.291
 1173SOL    HW1 4175   1.067   2.559   2.387
 1173SOL    HW2 4176   0.956   2.512   2.277
 1174SOL     OW 4177   0.076   2.673   2.651
 1174SOL    HW1 4178   0.175   2.661   2.660
 1174SOL    HW2 4179   0.052   2.768   2.672
 1175SOL     OW 4180   0.130   3.683   3.433
 1175SOL    HW1 4181   0.120   3.668   3.532
 1175SOL    HW2 4182   0.044   3.719   3.397
 1176SOL     OW 4183   0.865   2.210   2.057
 1176SOL    HW1 4184   0.924   2.273   2.008
 1176SOL    HW2 4185   0.884   2.116   2.028
 1177SOL     OW 4186   1.719   2.447   3.693
 1177SOL    HW1 4187   1.693   2.536   3.657
 1177SOL    HW2 4188   1.717   2.379   3.620
 1178SOL     OW 4189   1.362   3.006   2.407
 1178SOL    HW1 4190   1.445   2.977   2.359
 1178SOL    HW2 4191   1.313   3.073   2.351
 1179SOL     OW 4192   0.550   2.058   2.747
 1179SOL    HW1 4193   0.545   2.053   2.847
 1179SOL    HW2 4194   0.552   2.154   2.718
 1180SOL     OW 4195   1.008   3.318   2.339
 1180SOL    HW1 4196   0.962   3.390   2.287
 1180SOL    HW2 4197   1.004   3.338   2.437
 1181SOL     OW 4198   0.351   3.663   2.715
 1181SOL    HW1 4199   0.401   3.577   2.721
 1181SOL    HW2 4200   0.416   3.740   2.712
 1182SOL     OW 4201   1.795   2.928   2.735
 1182SOL    HW1 4202   1.733   2.913   2.659
 1182SOL    HW2 4203   1.743   2.939   2.820
 1183SOL     OW 4204   1.227   3.412   3.368
 1183SOL    HW1 4205   1.233   3.335   3.432
 1183SOL    HW2 4206   1.175   3.386   3.288
 1184SOL     OW 4207   0.321   2.805   2.104
 1184SOL    HW1 4208   0.403   2.844   2.062
 1184SOL    HW2 4209   0.294   2.723   2.055
 1185SOL     OW 4210   1.458   2.597   2.590
 1185SOL    HW1 4211   1.453   2.532   2.665
 1185SOL    HW2 4212   1.538   2.656   2.603
 1186SOL     OW 4213   0.461   3.128   3.589
 1186SOL    HW1 4214   0.411   3.129   3.503
 1186SOL    HW2 4215   0.398   3.110   3.665
 1187SOL     OW 4216   1.111   3.638   2.099
 1187SOL    HW1 4217   1.051   3.576   2.149
 1187SOL    HW2 4218   1.142   3.594   2.014
 1188SOL     OW 4219   0.202   2.147   3.360
 1188SOL    HW1 4220   0.122   2.207   3.347
 1188SOL    HW2 4221   0.192   2.098   3.446
 1189SOL     OW 4222   1.632   3.239   1.943
 1189SOL    HW1 4223   1.600   3.333   1.933
 1189SOL    HW2 4224   1.556   3.176   1.931
 1190SOL     OW 4225   0.464   3.605   2.185
 1190SOL    HW1 4226   0.497   3.644   2.271
 1190SOL    HW2 4227   0.540   3.598   2.120
 1191SOL     OW 4228   1.400   1.969   2.288
 1191SOL    HW1 4229   1.376   1.932   2.198
 1191SOL    HW2 4230   1.499   1.985   2.292
 1192SOL     OW 4231   0.249   3.647   3.103
 1192SOL    HW1 4232   0.306   3.582   3.153
 1192SOL    HW2 4233   0.233   3.614   3.010
 1193SOL     OW 4234   0.940   3.560   2.766
 1193SOL    HW1 4235   1.020   3.503   2.787
 1193SOL    HW2 4236   0.891   3.520   2.689
 1194SOL     OW 4237   0.382   2.562   2.342
 1194SOL    HW1 4238   0.427   2.472   2.339
 1194SOL    HW2 4239   0.288   2.551   2.375
 1195SOL     OW 4240   1.547   2.084   3.591
 1195SOL    HW1 4241   1.542   2.121   3.683
 1195SOL    HW2 4242   1.475   2.015   3.579
 1196SOL     OW 4243   0.614   1.984   1.979
 1196SOL    HW1 4244   0.712   1.962   1.986
 1196SOL    HW2 4245   0.583   1.967   1.886
 1197SOL     OW 4246   0.781   2.126   3.611
 1197SOL    HW1 4247   0.848   2.065   3.654
 1197SOL    HW2 4248   0.708   2.145   3.676
 1198SOL     OW 4249   0.888   3.376   3.057
 1198SOL    HW1 4250   0.865   3.351   2.963
 1198SOL    HW2 4251   0.949   3.307   3.096
 1199SOL     OW 4252   1.351   2.452   3.295
 1199SOL    HW1 4253   1.379   2.409   3.380
 1199SOL    HW2 4254   1.376   2.548   3.296
 1200SOL     OW 4255   0.803   3.264   2.786
 1200SOL    HW1 4256   0.893   3.278   2.744
 1200SOL    HW2 4257   0.732   3.266   2.715
 1201SOL     OW 4258   0.922   2.365   2.761
 1201SOL    HW1 4259   0.897   2.356   2.665
 1201SOL    HW2 4260   0.970   2.283   2.792
 1202SOL     OW 4261   0.539   1.926   2.374
 1202SOL    HW1 4262   0.458   1.927   2.432
 1202SOL    HW2 4263   0.542   2.009   2.319
 1203SOL     OW 4264   1.434   3.050   1.903
 1203SOL    HW1 4265   1.466   2.974   1.960
 1203SOL    HW2 4266   1.342   3.077   1.933
 1204SOL     OW 4267   0.297   1.897   2.033
 1204SOL    HW1 4268   0.346   1.981   2.012
 1204SOL    HW2 4269   0.359   1.832   2.078
 1205SOL     OW 4270   0.935   2.098   2.342
 1205SOL    HW1 4271   0.887   2.139   2.264
 1205SOL    HW2 4272   1.034   2.096   2.323
 1206SOL     OW 4273   1.076   2.545   3.326
 1206SOL    HW1 4274   0.996   2.484   3.329
 1206SOL    HW2 4275   1.157   2.492   3.302
 1207SOL     OW 4276   1.227   3.432   2.655
 1207SOL    HW1 4277   1.248   3.506   2.590
 1207SOL    HW2 4278   1.295   3.432   2.728
 1208SOL     OW 4279   0.459   3.014   2.603
 1208SOL    HW1 4280   0.388   2.987   2.668
 1208SOL    HW2 4281   0.433   2.986   2.510
 1209SOL     OW 4282   1.271   3.659   2.453
 1209SOL    HW1 4283   1.315   3.723   2.389
 1209SOL    HW2 4284   1.221   3.711   2.523
 1210SOL     OW 4285   1.032   2.411   1.878
 1210SOL    HW1 4286   0.991   2.493   1.839
 1210SOL    HW2 4287   1.096   2.437   1.951
 1211SOL     OW 4288   0.078   2.418   3.248
 1211SOL    HW1 4289   0.170   2.417   3.207
 1211SOL    HW2 4290   0.072   2.492   3.315
 1212SOL     OW 4291   0.561   2.084   3.009
 1212SOL    HW1 4292   0.599   2.000   3.046
 1212SOL    HW2 4293   0.473   2.103   3.053
 1213SOL     OW 4294   0.866   2.316   2.504
 1213SOL    HW1 4295   0.834   2.388   2.442
 1213SOL    HW2 4296   0.890   2.235   2.451
 1214SOL     OW 4297   1.017   1.901   2.615
 1214SOL    HW1 4298   0.945   1.906   2.546
 1214SOL    HW2 4299   0.993   1.832   2.684
 1215SOL     OW 4300   1.429   3.035   2.729
 1215SOL    HW1 4301   1.374   2.951   2.722
 1215SOL    HW2 4302   1.455   3.064   2.637
 1216SOL     OW 4303   1.466   2.452   2.854
 1216SOL    HW1 4304   1.436   2.357   2.861
 1216SOL    HW2 4305   1.539   2.468   2.920
 1217SOL     OW 4306   1.857   2.695   2.239
 1217SOL    HW1 4307   1.899   2.631   2.303
 1217SOL    HW2 4308   1.819   2.644   2.161
 1218SOL     OW 4309   0.488   3.247   2.036
 1218SOL    HW1 4310   0.401   3.232   2.083
 1218SOL    HW2 4311   0.471   3.273   1.941
 1219SOL     OW 4312   1.664   3.142   2.519
 1219SOL    HW1 4313   1.763   3.150   2.533
 1219SOL    HW2 4314   1.619   3.226   2.550
 1220SOL     OW 4315   1.390   2.437   1.940
 1220SOL    HW1 4316   1.336   2.416   2.021
 1220SOL    HW2 4317   1.481   2.396   1.949
 1221SOL     OW 4318   0.527   2.118   2.190
 1221SOL    HW1 4319   0.554   2.059   2.115
 1221SOL    HW2 4320   0.527   2.213   2.159
 1222SOL     OW 4321   1.754   3.085   3.450
 1222SOL    HW1 4322   1.845   3.046   3.437
 1222SOL    HW2 4323   1.762   3.181   3.474
 1223SOL     OW 4324   1.064   3.209   3.202
 1223SOL    HW1 4325   0.984   3.186   3.257
 1223SOL    HW2 4326   1.147   3.183   3.251
 1224SOL     OW 4327   1.592   3.491   3.487
 1224SOL    HW1 4328   1.619   3.525   3.397
 1224SOL    HW2 4329   1.671   3.453   3.533
 1225SOL     OW 4330   1.111   3.057   2.962
 1225SOL    HW1 4331   1.071   3.101   3.043
 1225SOL    HW2 4332   1.070   3.094   2.879
 1226SOL     OW 4333   1.638   2.961   2.941
 1226SOL    HW1 4334   1.643   3.042   3.000
 1226SOL    HW2 4335   1.552   2.963   2.890
 1227SOL     OW 4336   0.915   1.951   3.264
 1227SOL    HW1 4337   0.940   1.931   3.169
 1227SOL    HW2 4338   0.987   2.007   3.306
 1228SOL     OW 4339   0.980   2.978   3.581
 1228SOL    HW1 4340   0.881   2.984   3.591
 1228SOL    HW2 4341   1.003   2.898   3.525
 1229SOL     OW 4342   0.705   2.912   2.230
 1229SOL    HW1 4343   0.691   2.919   2.329
 1229SOL    HW2 4344   0.789   2.861   2.212
 1230SOL     OW 4345   0.410   2.675   3.113
 1230SOL    HW1 4346   0.496   2.687   3.163
 1230SOL    HW2 4347   0.368   2.588   3.140
 1231SOL     OW 4348   1.274   2.248   3.124
 1231SOL    HW1 4349   1.295   2.322   3.188
 1231SOL    HW2 4350   1.185   2.265   3.081
 1232SOL     OW 4351   0.064   3.426   3.193
 1232SOL    HW1 4352   0.018   3.508   3.159
 1232SOL    HW2 4353   0.162   3.445   3.202
 1233SOL     OW 4354   0.367   2.962   2.363
 1233SOL    HW1 4355   0.360   3.045   2.307
 1233SOL    HW2 4356   0.371   2.882   2.303
 1234SOL     OW 4357   0.566   2.399   2.727
 1234SOL    HW1 4358   0.578   2.465   2.653
 1234SOL    HW2 4359   0.612   2.433   2.810
 1235SOL     OW 4360   1.252   3.210   2.250
 1235SOL    HW1 4361   1.302   3.287   2.290
 1235SOL    HW2 4362   1.157   3.212   2.282
 1236SOL     OW 4363   1.272   3.307   3.004
 1236SOL    HW1 4364   1.319   3.320   3.091
 1236SOL    HW2 4365   1.206   3.233   3.013
 1237SOL     OW 4366   1.582   2.501   2.334
 1237SOL    HW1 4367   1.551   2.562   2.407
 1237SOL    HW2 4368   1.632   2.553   2.265
 1238SOL     OW 4369   0.354   3.372   3.191
 1238SOL    HW1 4370   0.333   3.328   3.104
 1238SOL    HW2 4371   0.451   3.398   3.194
 1239SOL     OW 4372   0.402   2.613   3.460
 1239SOL    HW1 4373   0.470   2.668   3.413
 1239SOL    HW2 4374   0.442   2.525   3.487
 1240SOL     OW 4375   1.587   2.641   3.532
 1240SOL    HW1 4376   1.495   2.679   3.527
 1240SOL    HW2 4377   1.647   2.688   3.467
 1241SOL     OW 4378   1.013   1.967   3.632
 1241SOL    HW1 4379   1.019   2.052   3.580
 1241SOL    HW2 4380   1.045   1.891   3.575
 1242SOL     OW 4381   0.504   1.912   3.602
 1242SOL    HW1 4382   0.462   1.855   3.532
 1242SOL    HW2 4383   0.438   1.981   3.634
 1243SOL     OW 4384   0.573   2.732   2.891
 1243SOL    HW1 4385   0.617   2.821   2.882
 1243SOL    HW2 4386   0.510   2.732   2.968
 1244SOL     OW 4387   1.360   2.724   2.907
 1244SOL    HW1 4388   1.285   2.724   2.841
 1244SOL    HW2 4389   1.397   2.632   2.916
 1245SOL     OW 4390   1.209   2.387   2.137
 1245SOL    HW1 4391   1.222   2.303   2.191
 1245SOL    HW2 4392   1.180   2.461   2.197
 1246SOL     OW 4393   0.307   2.075   3.093
 1246SOL    HW1 4394   0.284   2.112   3.183
 1246SOL    HW2 4395   0.277   1.980   3.087
 1247SOL     OW 4396   0.037   3.172   3.144
 1247SOL    HW1 4397   0.090   3.123   3.212
 1247SOL    HW2 4398   0.059   3.270   3.149
 1248SOL     OW 4399   0.732   2.496   2.926
 1248SOL    HW1 4400   0.791   2.470   2.850
 1248SOL    HW2 4401   0.704   2.592   2.915
 1249SOL     OW 4402   1.728   2.797   3.716
 1249SOL    HW1 4403   1.682   2.790   3.627
 1249SOL    HW2 4404   1.666   2.841   3.782
 1250SOL     OW 4405   0.307   1.925   2.480
 1250SOL    HW1 4406   0.296   2.019   2.513
 1250SOL    HW2 4407   0.302   1.862   2.557
 1251SOL     OW 4408   1.622   2.229   2.236
 1251SOL    HW1 4409   1.624   2.153   2.300
 1251SOL    HW2 4410   1.574   2.306   2.276
 1252SOL     OW 4411   1.023   2.628   2.828
 1252SOL    HW1 4412   1.038   2.649   2.924
 1252SOL    HW2 4413   0.993   2.533   2.819
 1253SOL     OW 4414   0.980   3.435   3.562
 1253SOL    HW1 4415   0.960   3.479   3.474
 1253SOL    HW2 4416   1.019   3.344   3.546
 1254SOL     OW 4417   1.859   3.380   3.467
 1254SOL    HW1 4418   1.873   3.407   3.372
 1254SOL    HW2 4419   1.942   3.402   3.520
 1255SOL     OW 4420   0.350   2.760   3.666
 1255SOL    HW1 4421   0.426   2.804   3.714
 1255SOL    HW2 4422   0.385   2.713   3.584
 1256SOL     OW 4423   1.540   2.136   1.987
 1256SOL    HW1 4424   1.479   2.061   2.010
 1256SOL    HW2 4425   1.562   2.188   2.070
 1257SOL     OW 4426   1.303   2.700   1.904
 1257SOL    HW1 4427   1.337   2.607   1.919
 1257SOL    HW2 4428   1.321   2.727   1.809
 1258SOL     OW 4429   1.068   3.195   2.711
 1258SOL    HW1 4430   1.075   3.111   2.656
 1258SOL    HW2 4431   1.130   3.264   2.675
 1259SOL     OW 4432   0.319   2.672   2.811
 1259SOL    HW1 4433   0.412   2.708   2.816
 1259SOL    HW2 4434   0.313   2.587   2.863
 1260SOL     OW 4435   0.339   2.371   2.868
 1260SOL    HW1 4436   0.287   2.288   2.851
 1260SOL    HW2 4437   0.416   2.376   2.804
 1261SOL     OW 4438   1.138   2.242   3.540
 1261SOL    HW1 4439   1.093   2.305   3.604
 1261SOL    HW2 4440   1.231   2.273   3.523
 1262SOL     OW 4441   1.160   2.069   3.339
 1262SOL    HW1 4442   1.160   2.133   3.416
 1262SOL    HW2 4443   1.188   2.117   3.256
 1263SOL     OW 4444   0.008   3.188   2.062
 1263SOL    HW1 4445  -0.085   3.209   2.031
 1263SOL    HW2 4446   0.018   3.089   2.075
 1264SOL     OW 4447   0.088   3.663   2.789
 1264SOL    HW1 4448   0.046   3.577   2.762
 1264SOL    HW2 4449   0.182   3.666   2.755
 1265SOL     OW 4450   0.504   3.430   2.772
 1265SOL    HW1 4451   0.570   3.504   2.781
 1265SOL    HW2 4452   0.548   3.351   2.730
 1266SOL     OW 4453   1.002   2.658   3.100
 1266SOL    HW1 4454   1.043   2.626   3.186
 1266SOL    HW2 4455   0.906   2.631   3.097
 1267SOL     OW 4456   0.040   2.406   2.976
 1267SOL    HW1 4457   0.125   2.373   2.935
 1267SOL    HW2 4458   0.053   2.421   3.074
 1268SOL     OW 4459   0.189   2.382   3.584
 1268SOL    HW1 4460   0.248   2.342   3.514
 1268SOL    HW2 4461   0.131   2.453   3.543
 1269SOL     OW 4462   1.369   2.812   3.522
 1269SOL    HW1 4463   1.408   2.901   3.542
 1269SOL    HW2 4464   1.379   2.792   3.425
 1270SOL     OW 4465   0.815   2.434   2.187
 1270SOL    HW1 4466   0.822   2.345   2.141
 1270SOL    HW2 4467   0.721   2.468   2.179
 1271SOL     OW 4468   1.657   2.466   3.068
 1271SOL    HW1 4469   1.619   2.397   3.130
 1271SOL    HW2 4470   1.739   2.430   3.024
 1272SOL     OW 4471   0.252   3.426   3.606
 1272SOL    HW1 4472   0.222   3.483   3.682
 1272SOL    HW2 4473   0.245   3.329   3.632
 1273SOL     OW 4474   0.671   2.326   3.131
 1273SOL    HW1 4475   0.637   2.237   3.101
 1273SOL    HW2 4476   0.697   2.380   3.051
 1274SOL     OW 4477   0.930   3.540   3.327
 1274SOL    HW1 4478   0.906   3.522   3.232
 1274SOL    HW2 4479   0.960   3.634   3.337
 1275SOL     OW 4480   0.473   2.362   2.053
 1275SOL    HW1 4481   0.534   2.442   2.057
 1275SOL    HW2 4482   0.378   2.393   2.060
 1276SOL     OW 4483   0.159   2.999   3.328
 1276SOL    HW1 4484   0.181   2.938   3.404
 1276SOL    HW2 4485   0.169   2.950   3.242
 1277SOL     OW 4486   1.347   2.921   3.096
 1277SOL    HW1 4487   1.371   2.858   3.022
 1277SOL    HW2 4488   1.257   2.961   3.078
 1278SOL     OW 4489   1.302   2.717   2.171
 1278SOL    HW1 4490   1.216   2.686   2.213
 1278SOL    HW2 4491   1.298   2.703   2.072
 1279SOL     OW 4492   1.759   3.609   3.016
 1279SOL    HW1 4493   1.820   3.639   2.943
 1279SOL    HW2 4494   1.721   3.520   2.994
 1280SOL     OW 4495   1.252   3.593   2.990
 1280SOL    HW1 4496   1.336   3.598   2.936
 1280SOL    HW2 4497   1.229   3.497   3.008
 1281SOL     OW 4498   0.083   3.120   2.884
 1281SOL    HW1 4499   0.078   3.119   2.984
 1281SOL    HW2 4500   0.000   3.079   2.846
 1282SOL     OW 4501   0.688   3.524   3.578
 1282SOL    HW1 4502   0.632   3.605   3.587
 1282SOL    HW2 4503   0.740   3.528   3.492
 1283SOL     OW 4504   1.726   1.997   2.385
 1283SOL    HW1 4505   1.799   1.980   2.318
 1283SOL    HW2 4506   1.695   1.910   2.423
 1284SOL     OW 4507   1.388   3.435   2.339
 1284SOL    HW1 4508   1.455   3.447   2.265
 1284SOL    HW2 4509   1.348   3.524   2.362
 1285SOL     OW 4510   0.130   3.656   3.713
 1285SOL    HW1 4511   0.089   3.582   3.766
 1285SOL    HW2 4512   0.194   3.707   3.771
 1286SOL     OW 4513   1.280   2.789   2.534
 1286SOL    HW1 4514   1.340   2.708   2.536
 1286SOL    HW2 4515   1.320   2.858   2.474
 1287SOL     OW 4516   0.830   3.135   3.284
 1287SOL    HW1 4517   0.825   3.168   3.379
 1287SOL    HW2 4518   0.744   3.154   3.238
 1288SOL     OW 4519   0.672   3.478   2.016
 1288SOL    HW1 4520   0.681   3.488   1.917
 1288SOL    HW2 4521   0.632   3.389   2.037
 1289SOL     OW 4522   1.650   3.582   3.256
 1289SOL    HW1 4523   1.703   3.592   3.172
 1289SOL    HW2 4524   1.623   3.672   3.290
 1290SOL     OW 4525   1.841   2.037   2.825
 1290SOL    HW1 4526   1.880   1.952   2.789
 1290SOL    HW2 4527   1.743   2.039   2.806
 1291SOL     OW 4528   0.263   2.188   2.582
 1291SOL    HW1 4529   0.184   2.239   2.548
 1291SOL    HW2 4530   0.254   2.173   2.680
 1292SOL     OW 4531   1.194   3.474   1.893
 1292SOL    HW1 4532   1.200   3.381   1.930
 1292SOL    HW2 4533   1.135   3.474   1.813
 1293SOL     OW 4534   0.822   2.864   3.234
 1293SOL    HW1 4535   0.862   2.863   3.142
 1293SOL    HW2 4536   0.832   2.956   3.274
 1294SOL     OW 4537   0.916   2.772   2.153
 1294SOL    HW1 4538   0.979   2.810   2.085
 1294SOL    HW2 4539   0.956   2.689   2.192
 1295SOL     OW 4540   1.504   3.469   1.906
 1295SOL    HW1 4541   1.412   3.506   1.913
 1295SOL    HW2 4542   1.542   3.489   1.816
 1296SOL     OW 4543   0.372   3.150   3.352
 1296SOL    HW1 4544   0.359   3.243   3.318
 1296SOL    HW2 4545   0.288   3.098   3.339
 1297SOL     OW 4546   1.614   3.154   3.151
 1297SOL    HW1 4547   1.674   3.157   3.231
 1297SOL    HW2 4548   1.539   3.218   3.164
 1298SOL     OW 4549   1.039   2.960   2.558
 1298SOL    HW1 4550   0.969   2.913   2.612
 1298SOL    HW2 4551   1.098   2.892   2.515
 1299SOL     OW 4552   1.014   2.098   2.833
 1299SOL    HW1 4553   1.006   2.062   2.740
 1299SOL    HW2 4554   1.012   2.022   2.898
 1300SOL     OW 4555   0.590   3.349   2.353
 1300SOL    HW1 4556   0.632   3.291   2.283
 1300SOL    HW2 4557   0.546   3.428   2.309
 1301SOL     OW 4558   1.709   2.247   3.243
 1301SOL    HW1 4559   1.782   2.316   3.247
 1301SOL    HW2 4560   1.737   2.172   3.184
 1302SOL     OW 4561   0.255   3.210   2.152
 1302SOL    HW1 4562   0.159   3.211   2.125
 1302SOL    HW2 4563   0.267   3.263   2.236
 1303SOL     OW 4564   0.105   2.875   3.588
 1303SOL    HW1 4565   0.028   2.842   3.642
 1303SOL    HW2 4566   0.190   2.845   3.630
 1304SOL     OW 4567   0.672   2.065   3.351
 1304SOL    HW1 4568   0.762   2.049   3.311
 1304SOL    HW2 4569   0.680   2.070   3.450
 1305SOL     OW 4570   0.075   2.207   1.895
 1305SOL    HW1 4571  -0.017   2.179   1.866
 1305SOL    HW2 4572   0.106   2.284   1.839
 1306SOL     OW 4573   1.440   2.718   3.260
 1306SOL    HW1 4574   1.383   2.770   3.197
 1306SOL    HW2 4575   1.536   2.730   3.236
 1307SOL     OW 4576   0.072   2.028   2.180
 1307SOL    HW1 4577   0.055   2.111   2.126
 1307SOL    HW2 4578   0.162   1.991   2.158
 1308SOL     OW 4579   1.183   3.197   1.981
 1308SOL    HW1 4580   1.084   3.186   1.983
 1308SOL    HW2 4581   1.217   3.212   2.074
 1309SOL     OW 4582   0.613   2.704   3.293
 1309SOL    HW1 4583   0.669   2.785   3.276
 1309SOL    HW2 4584   0.672   2.624   3.296
 1310SOL     OW 4585   1.493   3.629   2.821
 1310SOL    HW1 4586   1.526   3.693   2.752
 1310SOL    HW2 4587   1.559   3.623   2.896
 1311SOL     OW 4588   0.716   2.427   3.570
 1311SOL    HW1 4589   0.735   2.492   3.644
 1311SOL    HW2 4590   0.776   2.347   3.579
 1312SOL     OW 4591   1.450   3.082   3.495
 1312SOL    HW1 4592   1.441   3.072   3.594
 1312SOL    HW2 4593   1.546   3.075   3.469
 1313SOL     OW 4594   0.390   3.603   3.422
 1313SOL    HW1 4595   0.299   3.644   3.420
 1313SOL    HW2 4596   0.383   3.509   3.454
 1314SOL     OW 4597   1.674   2.745   3.116
 1314SOL    HW1 4598   1.647   2.656   3.079
 1314SOL    HW2 4599   1.675   2.813   3.043
 1315SOL     OW 4600   1.225   2.187   2.311
 1315SOL    HW1 4601   1.290   2.113   2.300
 1315SOL    HW2 4602   1.245   2.237   2.395
 1316SOL     OW 4603   0.594   2.607   2.514
 1316SOL    HW1 4604   0.644   2.692   2.495
 1316SOL    HW2 4605   0.506   2.609   2.466
 1317SOL     OW 4606   1.777   2.204   3.504
 1317SOL    HW1 4607   1.760   2.235   3.410
 1317SOL    HW2 4608   1.693   2.167   3.542
 1318SOL     OW 4609   1.730   2.796   3.379
 1318SOL    HW1 4610   1.768   2.887   3.394
 1318SOL    HW2 4611   1.722   2.779   3.280
 1319SOL     OW 4612   0.859   3.236   1.878
 1319SOL    HW1 4613   0.813   3.251   1.966
 1319SOL    HW2 4614   0.903   3.321   1.848
 1320SOL     OW 4615   0.661   3.652   2.815
 1320SOL    HW1 4616   0.615   3.740   2.802
 1320SOL    HW2 4617   0.760   3.664   2.808
 1321SOL     OW 4618   0.859   2.818   2.723
 1321SOL    HW1 4619   0.913   2.749   2.771
 1321SOL    HW2 4620   0.827   2.887   2.789
 1322SOL     OW 4621   1.083   2.846   1.949
 1322SOL    HW1 4622   1.060   2.899   1.867
 1322SOL    HW2 4623   1.164   2.790   1.930
 1323SOL     OW 4624   1.861   3.431   2.713
 1323SOL    HW1 4625   1.790   3.419   2.643
 1323SOL    HW2 4626   1.862   3.352   2.773
 1324SOL     OW 4627   0.221   3.176   3.706
 1324SOL    HW1 4628   0.156   3.103   3.685
 1324SOL    HW2 4629   0.225   3.190   3.804
 1325SOL     OW 4630   0.079   3.102   2.515
 1325SOL    HW1 4631   0.078   3.055   2.603
 1325SOL    HW2 4632   0.161   3.074   2.464
 1326SOL     OW 4633   0.672   3.253   3.486
 1326SOL    HW1 4634   0.594   3.203   3.524
 1326SOL    HW2 4635   0.669   3.348   3.517
 1327SOL     OW 4636   1.824   2.054   3.089
 1327SOL    HW1 4637   1.820   1.964   3.133
 1327SOL    HW2 4638   1.827   2.043   2.990
 1328SOL     OW 4639   0.428   2.286   2.382
 1328SOL    HW1 4640   0.458   2.214   2.320
 1328SOL    HW2 4641   0.389   2.246   2.465
 1329SOL     OW 4642   1.705   3.349   2.966
 1329SOL    HW1 4643   1.612   3.324   2.939
 1329SOL    HW2 4644   1.731   3.299   3.048
 1330SOL     OW 4645   0.317   2.409   3.142
 1330SOL    HW1 4646   0.355   2.350   3.214
 1330SOL    HW2 4647   0.357   2.383   3.054
 1331SOL     OW 4648   0.812   3.448   2.549
 1331SOL    HW1 4649   0.844   3.458   2.455
 1331SOL    HW2 4650   0.733   3.386   2.551
 1332SOL     OW 4651   1.424   2.076   2.974
 1332SOL    HW1 4652   1.476   2.011   3.029
 1332SOL    HW2 4653   1.375   2.139   3.035
 1333SOL     OW 4654   1.001   1.896   3.016
 1333SOL    HW1 4655   0.938   1.824   2.985
 1333SOL    HW2 4656   1.094   1.860   3.016
 1334SOL     OW 4657   0.770   3.192   2.163
 1334SOL    HW1 4658   0.724   3.105   2.180
 1334SOL    HW2 4659   0.861   3.189   2.204
 1335SOL     OW 4660   0.618   3.429   3.146
 1335SOL    HW1 4661   0.613   3.511   3.203
 1335SOL    HW2 4662   0.707   3.426   3.101
 1336SOL     OW 4663   1.352   1.914   2.030
 1336SOL    HW1 4664   1.387   1.873   1.946
 1336SOL    HW2 4665   1.262   1.876   2.050
 1337SOL     OW 4666   1.300   2.315   2.553
 1337SOL    HW1 4667   1.241   2.395   2.557
 1337SOL    HW2 4668   1.315   2.280   2.646
 1338SOL     OW 4669   1.593   2.083   2.744
 1338SOL    HW1 4670   1.509   2.082   2.798
 1338SOL    HW2 4671   1.595   2.166   2.688
 1339SOL     OW 4672   0.039   2.939   2.162
 1339SOL    HW1 4673   0.138   2.928   2.153
 1339SOL    HW2 4674  -0.001   2.853   2.194
 1340SOL     OW 4675   0.875   3.508   2.199
 1340SOL    HW1 4676   0.798   3.473   2.145
 1340SOL    HW2 4677   0.843   3.579   2.261
 1341SOL     OW 4678   0.230   2.490   3.837
 1341SOL    HW1 4679   0.137   2.488   3.874
 1341SOL    HW2 4680   0.231   2.451   3.745
 1342SOL     OW 4681   0.225   2.137   4.720
 1342SOL    HW1 4682   0.260   2.120   4.812
 1342SOL    HW2 4683   0.137   2.092   4.708
 1343SOL     OW 4684   0.019   2.230   4.371
 1343SOL    HW1 4685  -0.063   2.273   4.410
 1343SOL    HW2 4686  -0.009   2.157   4.308
 1344SOL     OW 4687   0.569   3.137   4.889
 1344SOL    HW1 4688   0.476   3.130   4.852
 1344SOL    HW2 4689   0.580   3.226   4.933
 1345SOL     OW 4690   1.555   3.373   4.427
 1345SOL    HW1 4691   1.498   3.357   4.508
 1345SOL    HW2 4692   1.496   3.383   4.347
 1346SOL     OW 4693   1.135   2.565   4.441
 1346SOL    HW1 4694   1.192   2.643   4.416
 1346SOL    HW2 4695   1.075   2.591   4.517
 1347SOL     OW 4696   0.768   3.006   4.747
 1347SOL    HW1 4697   0.690   3.023   4.807
 1347SOL    HW2 4698   0.802   3.093   4.711
 1348SOL     OW 4699   0.850   2.660   5.547
 1348SOL    HW1 4700   0.846   2.736   5.612
 1348SOL    HW2 4701   0.872   2.696   5.456
 1349SOL     OW 4702   0.685   2.874   4.389
 1349SOL    HW1 4703   0.754   2.858   4.459
 1349SOL    HW2 4704   0.612   2.931   4.427
 1350SOL     OW 4705   0.686   3.023   5.527
 1350SOL    HW1 4706   0.746   3.102   5.541
 1350SOL    HW2 4707   0.600   3.054   5.486
 1351SOL     OW 4708   0.335   3.297   4.785
 1351SOL    HW1 4709   0.257   3.266   4.732
 1351SOL    HW2 4710   0.393   3.355   4.728
 1352SOL     OW 4711   1.460   3.367   5.063
 1352SOL    HW1 4712   1.484   3.461   5.089
 1352SOL    HW2 4713   1.444   3.313   5.145
 1353SOL     OW 4714   0.438   2.254   5.223
 1353SOL    HW1 4715   0.520   2.198   5.232
 1353SOL    HW2 4716   0.357   2.196   5.227
 1354SOL     OW 4717   1.603   2.309   4.461
 1354SOL    HW1 4718   1.529   2.355   4.411
 1354SOL    HW2 4719   1.654   2.377   4.514
 1355SOL     OW 4720   0.231   3.575   4.207
 1355SOL    HW1 4721   0.265   3.652   4.261
 1355SOL    HW2 4722   0.275   3.575   4.117
 1356SOL     OW 4723   1.127   3.203   5.414
 1356SOL    HW1 4724   1.174   3.203   5.502
 1356SOL    HW2 4725   1.079   3.116   5.403
 1357SOL     OW 4726   0.230   3.296   4.262
 1357SOL    HW1 4727   0.204   3.392   4.262
 1357SOL    HW2 4728   0.159   3.242   4.307
 1358SOL     OW 4729   0.240   2.953   4.610
 1358SOL    HW1 4730   0.254   2.869   4.662
 1358SOL    HW2 4731   0.185   3.017   4.665
 1359SOL     OW 4732   0.620   3.648   5.163
 1359SOL    HW1 4733   0.528   3.631   5.198
 1359SOL    HW2 4734   0.648   3.740   5.189
 1360SOL     OW 4735   0.606   2.826   3.847
 1360SOL    HW1 4736   0.613   2.910   3.793
 1360SOL    HW2 4737   0.652   2.839   3.935
 1361SOL     OW 4738   1.594   1.976   5.204
 1361SOL    HW1 4739   1.576   2.043   5.132
 1361SOL    HW2 4740   1.591   2.022   5.293
 1362SOL     OW 4741   0.122   2.505   4.287
 1362SOL    HW1 4742   0.077   2.417   4.304
 1362SOL    HW2 4743   0.121   2.559   4.371
 1363SOL     OW 4744   1.842   3.629   4.083
 1363SOL    HW1 4745   1.896   3.600   4.163
 1363SOL    HW2 4746   1.872   3.719   4.054
 1364SOL     OW 4747   0.027   3.458   3.841
 1364SOL    HW1 4748   0.008   3.362   3.862
 1364SOL    HW2 4749  -0.006   3.516   3.916
 1365SOL     OW 4750   1.689   2.784   4.336
 1365SOL    HW1 4751   1.784   2.755   4.344
 1365SOL    HW2 4752   1.681   2.849   4.261
 1366SOL     OW 4753   1.641   2.970   4.156
 1366SOL    HW1 4754   1.727   2.972   4.104
 1366SOL    HW2 4755   1.655   3.017   4.244
 1367SOL     OW 4756   0.113   2.599   5.321
 1367SOL    HW1 4757   0.201   2.586   5.366
 1367SOL    HW2 4758   0.100   2.696   5.299
 1368SOL     OW 4759   0.613   3.227   4.450
 1368SOL    HW1 4760   0.564   3.140   4.459
 1368SOL    HW2 4761   0.590   3.270   4.363
 1369SOL     OW 4762   1.293   3.090   5.147
 1369SOL    HW1 4763   1.330   3.017   5.089
 1369SOL    HW2 4764   1.345   3.095   5.232
 1370SOL     OW 4765   0.809   1.866   4.226
 1370SOL    HW1 4766   0.849   1.957   4.217
 1370SOL    HW2 4767   0.709   1.874   4.232
 1371SOL     OW 4768   0.197   2.838   4.988
 1371SOL    HW1 4769   0.286   2.793   4.974
 1371SOL    HW2 4770   0.124   2.773   4.969
 1372SOL     OW 4771   1.525   2.861   3.914
 1372SOL    HW1 4772   1.462   2.785   3.927
 1372SOL    HW2 4773   1.573   2.879   4.000
 1373SOL     OW 4774   1.187   3.654   5.340
 1373SOL    HW1 4775   1.211   3.714   5.264
 1373SOL    HW2 4776   1.194   3.559   5.310
 1374SOL     OW 4777   0.317   2.113   5.525
 1374SOL    HW1 4778   0.388   2.184   5.531
 1374SOL    HW2 4779   0.229   2.152   5.553
 1375SOL     OW 4780   1.466   3.279   4.677
 1375SOL    HW1 4781   1.407   3.285   4.757
 1375SOL    HW2 4782   1.451   3.191   4.631
 1376SOL     OW 4783   1.667   3.576   4.296
 1376SOL    HW1 4784   1.626   3.553   4.208
 1376SOL    HW2 4785   1.649   3.502   4.361
 1377SOL     OW 4786   0.598   2.591   3.994
 1377SOL    HW1 4787   0.622   2.660   3.926
 1377SOL    HW2 4788   0.520   2.624   4.048
 1378SOL     OW 4789   1.281   2.207   4.668
 1378SOL    HW1 4790   1.195   2.157   4.655
 1378SOL    HW2 4791   1.343   2.153   4.724
 1379SOL     OW 4792   1.576   3.524   4.031
 1379SOL    HW1 4793   1.665   3.570   4.034
 1379SOL    HW2 4794   1.555   3.500   3.936
 1380SOL     OW 4795   0.807   2.467   5.189
 1380SOL    HW1 4796   0.760   2.464   5.278
 1380SOL    HW2 4797   0.756   2.412   5.123
 1381SOL     OW 4798   1.394   2.331   5.398
 1381SOL    HW1 4799   1.374   2.374   5.486
 1381SOL    HW2 4800   1.472   2.269   5.407
 1382SOL     OW 4801   0.973   2.752   5.296
 1382SOL    HW1 4802   1.019   2.668   5.267
 1382SOL    HW2 4803   0.917   2.786   5.221
 1383SOL     OW 4804   0.991   2.272   4.966
 1383SOL    HW1 4805   0.914   2.306   5.020
 1383SOL    HW2 4806   0.957   2.221   4.887
 1384SOL     OW 4807   1.041   2.563   4.153
 1384SOL    HW1 4808   1.067   2.559   4.249
 1384SOL    HW2 4809   0.956   2.512   4.139
 1385SOL     OW 4810   0.076   2.673   4.513
 1385SOL    HW1 4811   0.175   2.661   4.522
 1385SOL    HW2 4812   0.052   2.768   4.534
 1386SOL     OW 4813   0.130   3.683   5.295
 1386SOL    HW1 4814   0.120   3.668   5.394
 1386SOL    HW2 4815   0.044   3.719   5.259
 1387SOL     OW 4816   0.865   2.210   3.919
 1387SOL    HW1 4817   0.924   2.273   3.870
 1387SOL    HW2 4818   0.884   2.116   3.890
 1388SOL     OW 4819   1.719   2.447   5.555
 1388SOL    HW1 4820   1.693   2.536   5.519
 1388SOL    HW2 4821   1.717   2.379   5.482
 1389SOL     OW 4822   1.362   3.006   4.269
 1389SOL    HW1 4823   1.445   2.977   4.221
 1389SOL    HW2 4824   1.313   3.073   4.213
 1390SOL     OW 4825   0.550   2.058   4.609
 1390SOL    HW1 4826   0.545   2.053   4.709
 1390SOL    HW2 4827   0.552   2.154   4.580
 1391SOL     OW 4828   1.008   3.318   4.201
 1391SOL    HW1 4829   0.962   3.390   4.149
 1391SOL    HW2 4830   1.004   3.338   4.299
 1392SOL     OW 4831   0.351   3.663   4.577
 1392SOL    HW1 4832   0.401   3.577   4.583
 1392SOL    HW2 4833   0.416   3.740   4.574
 1393SOL     OW 4834   1.795   2.928   4.597
 1393SOL    HW1 4835   1.733   2.913   4.521
 1393SOL    HW2 4836   1.743   2.939   4.682
 1394SOL     OW 4837   1.227   3.412   5.230
 1394SOL    HW1 4838   1.233   3.335   5.294
 1394SOL    HW2 4839   1.175   3.386   5.150
 1395SOL     OW 4840   0.321   2.805   3.966
 1395SOL    HW1 4841   0.403   2.844   3.924
 1395SOL    HW2 4842   0.294   2.723   3.917
 1396SOL     OW 4843   1.458   2.597   4.452
 1396SOL    HW1 4844   1.453   2.532   4.527
 1396SOL    HW2 4845   1.538   2.656   4.465
 1397SOL     OW 4846   0.461   3.128   5.451
 1397SOL    HW1 4847   0.411   3.129   5.365
 1397SOL    HW2 4848   0.398   3.110   5.527
 1398SOL     OW 4849   1.111   3.638   3.961
 1398SOL    HW1 4850   1.051   3.576   4.011
 1398SOL    HW2 4851   1.142   3.594   3.876
 1399SOL     OW 4852   0.202   2.147   5.222
 1399SOL    HW1 4853   0.122   2.207   5.209
 1399SOL    HW2 4854   0.192   2.098   5.308
 1400SOL     OW 4855   1.632   3.239   3.805
 1400SOL    HW1 4856   1.600   3.333   3.795
 1400SOL    HW2 4857   1.556   3.176   3.793
 1401SOL     OW 4858   0.464   3.605   4.047
 1401SOL    HW1 4859   0.497   3.644   4.133
 1401SOL    HW2 4860   0.540   3.598   3.982
 1402SOL     OW 4861   1.400   1.969   4.150
 1402SOL    HW1 4862   1.376   1.932   4.060
 1402SOL    HW2 4863   1.499   1.985   4.154
 1403SOL     OW 4864   0.249   3.647   4.965
 1403SOL    HW1 4865   0.306   3.582   5.015
 1403SOL    HW2 4866   0.233   3.614   4.872
 1404SOL     OW 4867   0.940   3.560   4.628
 1404SOL    HW1 4868   1.020   3.503   4.649
 1404SOL    HW2 4869   0.891   3.520   4.551
 1405SOL     OW 4870   0.382   2.562   4.204
 1405SOL    HW1 4871   0.427   2.472   4.201
 1405SOL    HW2 4872   0.288   2.551   4.237
 1406SOL     OW 4873   1.547   2.084   5.453
 1406SOL    HW1 4874   1.542   2.121   5.545
 1406SOL    HW2 4875   1.475   2.015   5.441
 1407SOL     OW 4876   0.614   1.984   3.841
 1407SOL    HW1 4877   0.712   1.962   3.848
 1407SOL    HW2 4878   0.583   1.967   3.748
 1408SOL     OW 4879   0.781   2.126   5.473
 1408SOL    HW1 4880   0.848   2.065   5.516
 1408SOL    HW2 4881   0.708   2.145   5.538
 1409SOL     OW 4882   0.888   3.376   4.919
 1409SOL    HW1 4883   0.865   3.351   4.825
 1409SOL    HW2 4884   0.949   3.307   4.958
 1410SOL     OW 4885   1.351   2.452   5.157
 1410SOL    HW1 4886   1.379   2.409   5.242
 1410SOL    HW2 4887   1.376   2.548   5.158
 1411SOL     OW 4888   0.803   3.264   4.648
 1411SOL    HW1 4889   0.893   3.278   4.606
 1411SOL    HW2 4890   0.732   3.266   4.577
 1412SOL     OW 4891   0.922   2.365   4.623
 1412SOL    HW1 4892   0.897   2.356   4.527
 1412SOL    HW2 4893   0.970   2.283   4.654
 1413SOL     OW 4894   0.539   1.926   4.236
 1413SOL    HW1 4895   0.458   1.927   4.294
 1413SOL    HW2 4896   0.542   2.009   4.181
 1414SOL     OW 4897   1.434   3.050   3.765
 1414SOL    HW1 4898   1.466   2.974   3.822
 1414SOL    HW2 4899   1.342   3.077   3.795
 1415SOL     OW 4900   0.297   1.897   3.895
 1415SOL    HW1 4901   0.346   1.981   3.874
 1415SOL    HW2 4902   0.359   1.832   3.940
 1416SOL     OW 4903   0.935   2.098   4.204
 1416SOL    HW1 4904   0.887   2.139   4.126
 1416SOL    HW2 4905   1.034   2.096   4.185
 1417SOL     OW 4906   1.076   2.545   5.188
 1417SOL    HW1 4907   0.996   2.484   5.191
 1417SOL    HW2 4908   1.157   2.492   5.164
 1418SOL     OW 4909   1.227   3.432   4.517
 1418SOL    HW1 4910   1.248   3.506   4.452
 1418SOL    HW2 4911   1.295   3.432   4.590
 1419SOL     OW 4912   0.459   3.014   4.465
 1419SOL    HW1 4913   0.388   2.987   4.530
 1419SOL    HW2 4914   0.433   2.986   4.372
 1420SOL     OW 4915   1.271   3.659   4.315
 1420SOL    HW1 4916   1.315   3.723   4.251
 1420SOL    HW2 4917   1.221   3.711   4.385
 1421SOL     OW 4918   1.032   2.411   3.740
 1421SOL    HW1 4919   0.991   2.493   3.701
 1421SOL    HW2 4920   1.096   2.437   3.813
 1422SOL     OW 4921   0.078   2.418   5.110
 1422SOL    HW1 4922   0.170   2.417   5.069
 1422SOL    HW2 4923   0.072   2.492   5.177
 1423SOL     OW 4924   0.561   2.084   4.871
 1423SOL    HW1 4925   0.599   2.000   4.908
 1423SOL    HW2 4926   0.473   2.103   4.915
 1424SOL     OW 4927   0.866   2.316   4.366
 1424SOL    HW1 4928   0.834   2.388   4.304
 1424SOL    HW2 4929   0.890   2.235   4.313
 1425SOL     OW 4930   1.017   1.901   4.477
 1425SOL    HW1 4931   0.945   1.906   4.408
 1425SOL    HW2 4932   0.993   1.832   4.546
 1426SOL     OW 4933   1.429   3.035   4.591
 1426SOL    HW1 4934   1.374   2.951   4.584
 1426SOL    HW2 4935   1.455   3.064   4.499
 1427SOL     OW 4936   1.466   2.452   4.716
 1427SOL    HW1 4937   1.436   2.357   4.723
 1427SOL    HW2 4938   1.539   2.468   4.782
 1428SOL     OW 4939   0.488   3.247   3.898
 1428SOL    HW1 4940   0.401   3.232   3.945
 1428SOL    HW2 4941   0.471   3.273   3.803
 1429SOL     OW 4942   1.664   3.142   4.381
 1429SOL    HW1 4943   1.763   3.150   4.395
 1429SOL    HW2 4944   1.619   3.226   4.412
 1430SOL     OW 4945   1.390   2.437   3.802
 1430SOL    HW1 4946   1.336   2.416   3.883
 1430SOL    HW2 4947   1.481   2.396   3.811
 1431SOL     OW 4948   0.527   2.118   4.052
 1431SOL    HW1 4949   0.554   2.059   3.977
 1431SOL    HW2 4950   0.527   2.213   4.021
 1432SOL     OW 4951   1.754   3.085   5.312
 1432SOL    HW1 4952   1.845   3.046   5.299
 1432SOL    HW2 4953   1.762   3.181   5.336
 1433SOL     OW 4954   1.064   3.209   5.064
 1433SOL    HW1 4955   0.984   3.186   5.119
 1433SOL    HW2 4956   1.147   3.183   5.113
 1434SOL     OW 4957   1.592   3.491   5.349
 1434SOL    HW1 4958   1.619   3.525   5.259
 1434SOL    HW2 4959   1.671   3.453   5.395
 1435SOL     OW 4960   1.111   3.057   4.824
 1435SOL    HW1 4961   1.071   3.101   4.905
 1435SOL    HW2 4962   1.070   3.094   4.741
 1436SOL     OW 4963   1.638   2.961   4.803
 1436SOL    HW1 4964   1.643   3.042   4.862
 1436SOL    HW2 4965   1.552   2.963   4.752
 1437SOL     OW 4966   0.915   1.951   5.126
 1437SOL    HW1 4967   0.940   1.931   5.031
 1437SOL    HW2 4968   0.987   2.007   5.168
 1438SOL     OW 4969   0.980   2.978   5.443
 1438SOL    HW1 4970   0.881   2.984   5.453
 1438SOL    HW2 4971   1.003   2.898   5.387
 1439SOL     OW 4972   0.705   2.912   4.092
 1439SOL    HW1 4973   0.691   2.919   4.191
 1439SOL    HW2 4974   0.789   2.861   4.074
 1440SOL     OW 4975   0.410   2.675   4.975
 1440SOL    HW1 4976   0.496   2.687   5.025
 1440SOL    HW2 4977   0.368   2.588   5.002
 1441SOL     OW 4978   1.274   2.248   4.986
 1441SOL    HW1 4979   1.295   2.322   5.050
 1441SOL    HW2 4980   1.185   2.265   4.943
 1442SOL     OW 4981   0.064   3.426   5.055
 1442SOL    HW1 4982   0.018   3.508   5.021
 1442SOL    HW2 4983   0.162   3.445   5.064
 1443SOL     OW 4984   0.367   2.962   4.225
 1443SOL    HW1 4985   0.360   3.045   4.169
 1443SOL    HW2 4986   0.371   2.882   4.165
 1444SOL     OW 4987   0.566   2.399   4.589
 1444SOL    HW1 4988   0.578   2.465   4.515
 1444SOL    HW2 4989   0.612   2.433   4.672
 1445SOL     OW 4990   1.252   3.210   4.112
 1445SOL    HW1 4991   1.302   3.287   4.152
 1445SOL    HW2 4992   1.157   3.212   4.144
 1446SOL     OW 4993   1.272   3.307   4.866
 1446SOL    HW1 4994   1.319   3.320   4.953
 1446SOL    HW2 4995   1.206   3.233   4.875
 1447SOL     OW 4996   1.582   2.501   4.196
 1447SOL    HW1 4997   1.551   2.562   4.269
 1447SOL    HW2 4998   1.632   2.553   4.127
 1448SOL     OW 4999   0.354   3.372   5.053
 1448SOL    HW1 5000   0.333   3.328   4.966
 1448SOL    HW2 5001   0.451   3.398   5.056
 1449SOL     OW 5002   0.402   2.613   5.322
 1449SOL    HW1 5003   0.470   2.668   5.275
 1449SOL    HW2 5004   0.442   2.525   5.349
 1450SOL     OW 5005   1.587   2.641   5.394
 1450SOL    HW1 5006   1.495   2.679   5.389
 1450SOL    HW2 5007   1.647   2.688   5.329
 1451SOL     OW 5008   1.013   1.967   5.494
 1451SOL    HW1 5009   1.019   2.052   5.442
 1451SOL    HW2 5010   1.045   1.891   5.437
 1452SOL     OW 5011   0.504   1.912   5.464
 1452SOL    HW1 5012   0.462   1.855   5.394
 1452SOL    HW2 5013   0.438   1.981   5.496
 1453SOL     OW 5014   0.573   2.732   4.753
 1453SOL    HW1 5015   0.617   2.821   4.744
 1453SOL    HW2 5016   0.510   2.732   4.830
 1454SOL     OW 5017   1.360   2.724   4.769
 1454SOL    HW1 5018   1.285   2.724   4.703
 1454SOL    HW2 5019   1.397   2.632   4.778
 1455SOL     OW 5020   1.209   2.387   3.999
 1455SOL    HW1 5021   1.222   2.303   4.053
 1455SOL    HW2 5022   1.180   2.461   4.059
 1456SOL     OW 5023   0.307   2.075   4.955
 1456SOL    HW1 5024   0.284   2.112   5.045
 1456SOL    HW2 5025   0.277   1.980   4.949
 1457SOL     OW 5026   0.037   3.172   5.006
 1457SOL    HW1 5027   0.090   3.123   5.074
 1457SOL    HW2 5028   0.059   3.270   5.011
 1458SOL     OW 5029   0.732   2.496   4.788
 1458SOL    HW1 5030   0.791   2.470   4.712
 1458SOL    HW2 5031   0.704   2.592   4.777
 1459SOL     OW 5032   1.728   2.797   5.578
 1459SOL    HW1 5033   1.682   2.790   5.489
 1459SOL    HW2 5034   1.666   2.841   5.644
 1460SOL     OW 5035   0.307   1.925   4.342
 1460SOL    HW1 5036   0.296   2.019   4.375
 1460SOL    HW2 5037   0.302   1.862   4.419
 1461SOL     OW 5038   1.622   2.229   4.098
 1461SOL    HW1 5039   1.624   2.153   4.162
 1461SOL    HW2 5040   1.574   2.306   4.138
 1462SOL     OW 5041   1.023   2.628   4.690
 1462SOL    HW1 5042   1.038   2.649   4.786
 1462SOL    HW2 5043   0.993   2.533   4.681
 1463SOL     OW 5044   0.980   3.435   5.424
 1463SOL    HW1 5045   0.960   3.479   5.336
 1463SOL    HW2 5046   1.019   3.344   5.408
 1464SOL     OW 5047   1.859   3.380   5.329
 1464SOL    HW1 5048   1.873   3.407   5.234
 1464SOL    HW2 5049   1.942   3.402   5.382
 1465SOL     OW 5050   0.350   2.760   5.528
 1465SOL    HW1 5051   0.426   2.804   5.576
 1465SOL    HW2 5052   0.385   2.713   5.446
 1466SOL     OW 5053   1.540   2.136   3.849
 1466SOL    HW1 5054   1.479   2.061   3.872
 1466SOL    HW2 5055   1.562   2.188   3.932
 1467SOL     OW 5056   1.303   2.700   3.766
 1467SOL    HW1 5057   1.337   2.607   3.781
 1467SOL    HW2 5058   1.321   2.727   3.671
 1468SOL     OW 5059   1.068   3.195   4.573
 1468SOL    HW1 5060   1.075   3.111   4.518
 1468SOL    HW2 5061   1.130   3.264   4.537
 1469SOL     OW 5062   0.319   2.672   4.673
 1469SOL    HW1 5063   0.412   2.708   4.678
 1469SOL    HW2 5064   0.313   2.587   4.725
 1470SOL     OW 5065   0.339   2.371   4.730
 1470SOL    HW1 5066   0.287   2.288   4.713
 1470SOL    HW2 5067   0.416   2.376   4.666
 1471SOL     OW 5068   1.138   2.242   5.402
 1471SOL    HW1 5069   1.093   2.305   5.466
 1471SOL    HW2 5070   1.231   2.273   5.385
 1472SOL     OW 5071   1.160   2.069   5.201
 1472SOL    HW1 5072   1.160   2.133   5.278
 1472SOL    HW2 5073   1.188   2.117   5.118
 1473SOL     OW 5074   0.008   3.188   3.924
 1473SOL    HW1 5075  -0.085   3.209   3.893
 1473SOL    HW2 5076   0.018   3.089   3.937
 1474SOL     OW 5077   0.088   3.663   4.651
 1474SOL    HW1 5078   0.046   3.577   4.624
 1474SOL    HW2 5079   0.182   3.666   4.617
 1475SOL     OW 5080   0.504   3.430   4.634
 1475SOL    HW1 5081   0.570   3.504   4.643
 1475SOL    HW2 5082   0.548   3.351   4.592
 1476SOL     OW 5083   1.002   2.658   4.962
 1476SOL    HW1 5084   1.043   2.626   5.048
 1476SOL    HW2 5085   0.906   2.631   4.959
 1477SOL     OW 5086   0.040   2.406   4.838
 1477SOL    HW1 5087   0.125   2.373   4.797
 1477SOL    HW2 5088   0.053   2.421   4.936
 1478SOL     OW 5089   0.189   2.382   5.446
 1478SOL    HW1 5090   0.248   2.342   5.376
 1478SOL    HW2 5091   0.131   2.453   5.405
 1479SOL     OW 5092   1.369   2.812   5.384
 1479SOL    HW1 5093   1.408   2.901   5.404
 1479SOL    HW2 5094   1.379   2.792   5.287
 1480SOL     OW 5095   0.815   2.434   4.049
 1480SOL    HW1 5096   0.822   2.345   4.003
 1480SOL    HW2 5097   0.721   2.468   4.041
 1481SOL     OW 5098   1.657   2.466   4.930
 1481SOL    HW1 5099   1.619   2.397   4.992
 1481SOL    HW2 5100   1.739   2.430   4.886
 1482SOL     OW 5101   0.252   3.426   5.468
 1482SOL    HW1 5102   0.222   3.483   5.544
 1482SOL    HW2 5103   0.245   3.329   5.494
 1483SOL     OW 5104   0.671   2.326   4.993
 1483SOL    HW1 5105   0.637   2.237   4.963
 1483SOL    HW2 5106   0.697   2.380   4.913
 1484SOL     OW 5107   0.930   3.540   5.189
 1484SOL    HW1 5108   0.906   3.522   5.094
 1484SOL    HW2 5109   0.960   3.634   5.199
 1485SOL     OW 5110   0.473   2.362   3.915
 1485SOL    HW1 5111   0.534   2.442   3.919
 1485SOL    HW2 5112   0.378   2.393   3.922
 1486SOL     OW 5113   0.159   2.999   5.190
 1486SOL    HW1 5114   0.181   2.938   5.266
 1486SOL    HW2 5115   0.169   2.950   5.104
 1487SOL     OW 5116   1.347   2.921   4.958
 1487SOL    HW1 5117   1.371   2.858   4.884
 1487SOL    HW2 5118   1.257   2.961   4.940
 1488SOL     OW 5119   1.302   2.717   4.033
 1488SOL    HW1 5120   1.216   2.686   4.075
 1488SOL    HW2 5121   1.298   2.703   3.934
 1489SOL     OW 5122   1.759   3.609   4.878
 1489SOL    HW1 5123   1.820   3.639   4.805
 1489SOL    HW2 5124   1.721   3.520   4.856
 1490SOL     OW 5125   1.252   3.593   4.852
 1490SOL    HW1 5126   1.336   3.598   4.798
 1490SOL    HW2 5127   1.229   3.497   4.870
 1491SOL     OW 5128   0.083   3.120   4.746
 1491SOL    HW1 5129   0.078   3.119   4.846
 1491SOL    HW2 5130   0.000   3.079   4.708
 1492SOL     OW 5131   0.688   3.524   5.440
 1492SOL    HW1 5132   0.632   3.605   5.449
 1492SOL    HW2 5133   0.740   3.528   5.354
 1493SOL     OW 5134   1.726   1.997   4.247
 1493SOL    HW1 5135   1.799   1.980   4.180
 1493SOL    HW2 5136   1.695   1.910   4.285
 1494SOL     OW 5137   1.388   3.435   4.201
 1494SOL    HW1 5138   1.455   3.447   4.127
 1494SOL    HW2 5139   1.348   3.524   4.224
 1495SOL     OW 5140   0.130   3.656   5.575
 1495SOL    HW1 5141   0.089   3.582   5.628
 1495SOL    HW2 5142   0.194   3.707   5.633
 1496SOL     OW 5143   1.280   2.789   4.396
 1496SOL    HW1 5144   1.340   2.708   4.398
 1496SOL    HW2 5145   1.320   2.858   4.336
 1497SOL     OW 5146   0.830   3.135   5.146
 1497SOL    HW1 5147   0.825   3.168   5.241
 1497SOL    HW2 5148   0.744   3.154   5.100
 1498SOL     OW 5149   0.672   3.478   3.878
 1498SOL    HW1 5150   0.681   3.488   3.779
 1498SOL    HW2 5151   0.632   3.389   3.899
 1499SOL     OW 5152   1.650   3.582   5.118
 1499SOL    HW1 5153   1.703   3.592   5.034
 1499SOL    HW2 5154   1.623   3.672   5.152
 1500SOL     OW 5155   1.841   2.037   4.687
 1500SOL    HW1 5156   1.880   1.952   4.651
 1500SOL    HW2 5157   1.743   2.039   4.668
 1501SOL     OW 5158   0.263   2.188   4.444
 1501SOL    HW1 5159   0.184   2.239   4.410
 1501SOL    HW2 5160   0.254   2.173   4.542
 1502SOL     OW 5161   1.194   3.474   3.755
 1502SOL    HW1 5162   1.200   3.381   3.792
 1502SOL    HW2 5163   1.135   3.474   3.675
 1503SOL     OW 5164   0.822   2.864   5.096
 1503SOL    HW1 5165   0.862   2.863   5.004
 1503SOL    HW2 5166   0.832   2.956   5.136
 1504SOL     OW 5167   0.916   2.772   4.015
 1504SOL    HW1 5168   0.979   2.810   3.947
 1504SOL    HW2 5169   0.956   2.689   4.054
 1505SOL     OW 5170   1.504   3.469   3.768
 1505SOL    HW1 5171   1.412   3.506   3.775
 1505SOL    HW2 5172   1.542   3.489   3.678
 1506SOL     OW 5173   0.372   3.150   5.214
 1506SOL    HW1 5174   0.359   3.243   5.180
 1506SOL    HW2 5175   0.288   3.098   5.201
 1507SOL     OW 5176   1.614   3.154   5.013
 1507SOL    HW1 5177   1.674   3.157   5.093
 1507SOL    HW2 5178   1.539   3.218   5.026
 1508SOL     OW 5179   1.039   2.960   4.420
 1508SOL    HW1 5180   0.969   2.913   4.474
 1508SOL    HW2 5181   1.098   2.892   4.377
 1509SOL     OW 5182   1.014   2.098   4.695
 1509SOL    HW1 5183   1.006   2.062   4.602
 1509SOL    HW2 5184   1.012   2.022   4.760
 1510SOL     OW 5185   0.590   3.349   4.215
 1510SOL    HW1 5186   0.632   3.291   4.145
 1510SOL    HW2 5187   0.546   3.428   4.171
 1511SOL     OW 5188   1.709   2.247   5.105
 1511SOL    HW1 5189   1.782   2.316   5.109
 1511SOL    HW2 5190   1.737   2.172   5.046
 1512SOL     OW 5191   0.255   3.210   4.014
 1512SOL    HW1 5192   0.159   3.211   3.987
 1512SOL    HW2 5193   0.267   3.263   4.098
 1513SOL     OW 5194   0.105   2.875   5.450
 1513SOL    HW1 5195   0.028   2.842   5.504
 1513SOL    HW2 5196   0.190   2.845   5.492
 1514SOL     OW 5197   0.672   2.065   5.213
 1514SOL    HW1 5198   0.762   2.049   5.173
 1514SOL    HW2 5199   0.680   2.070   5.312
 1515SOL     OW 5200   0.075   2.207   3.757
 1515SOL    HW1 5201  -0.017   2.179   3.728
 1515SOL    HW2 5202   0.106   2.284   3.701
 1516SOL     OW 5203   1.440   2.718   5.122
 1516SOL    HW1 5204   1.383   2.770   5.059
 1516SOL    HW2 5205   1.536   2.730   5.098
 1517SOL     OW 5206   0.072   2.028   4.042
 1517SOL    HW1 5207   0.055   2.111   3.988
 1517SOL    HW2 5208   0.162   1.991   4.020
 1518SOL     OW 5209   1.183   3.197   3.843
 1518SOL    HW1 5210   1.084   3.186   3.845
 1518SOL    HW2 5211   1.217   3.212   3.936
 1519SOL     OW 5212   0.613   2.704   5.155
 1519SOL    HW1 5213   0.669   2.785   5.138
 1519SOL    HW2 5214   0.672   2.624   5.158
 1520SOL     OW 5215   1.493   3.629   4.683
 1520SOL    HW1 5216   1.526   3.693   4.614
 1520SOL    HW2 5217   1.559   3.623   4.758
 1521SOL     OW 5218   0.716   2.427   5.432
 1521SOL    HW1 5219   0.735   2.492   5.506
 1521SOL    HW2 5220   0.776   2.347   5.441
 1522SOL     OW 5221   1.450   3.082   5.357
 1522SOL    HW1 5222   1.441   3.072   5.456
 1522SOL    HW2 5223   1.546   3.075   5.331
 1523SOL     OW 5224   0.390   3.603   5.284
 1523SOL    HW1 5225   0.299   3.644   5.282
 1523SOL    HW2 5226   0.383   3.509   5.316
 1524SOL     OW 5227   1.674   2.745   4.978
 1524SOL    HW1 5228   1.647   2.656   4.941
 1524SOL    HW2 5229   1.675   2.813   4.905
 1525SOL     OW 5230   1.225   2.187   4.173
 1525SOL    HW1 5231   1.290   2.113   4.162
 1525SOL    HW2 5232   1.245   2.237   4.257
 1526SOL     OW 5233   0.594   2.607   4.376
 1526SOL    HW1 5234   0.644   2.692   4.357
 1526SOL    HW2 5235   0.506   2.609   4.328
 1527SOL     OW 5236   1.777   2.204   5.366
 1527SOL    HW1 5237   1.760   2.235   5.272
 1527SOL    HW2 5238   1.693   2.167   5.404
 1528SOL     OW 5239   1.730   2.796   5.241
 1528SOL    HW1 5240   1.768   2.887   5.256
 1528SOL    HW2 5241   1.722   2.779   5.142
 1529SOL     OW 5242   0.859   3.236   3.740
 1529SOL    HW1 5243   0.813   3.251   3.828
 1529SOL    HW2 5244   0.903   3.321   3.710
 1530SOL     OW 5245   0.661   3.652   4.677
 1530SOL    HW1 5246   0.615   3.740   4.664
 1530SOL    HW2 5247   0.760   3.664   4.670
 1531SOL     OW 5248   0.859   2.818   4.585
 1531SOL    HW1 5249   0.913   2.749   4.633
 1531SOL    HW2 5250   0.827   2.887   4.651
 1532SOL     OW 5251   1.083   2.846   3.811
 1532SOL    HW1 5252   1.060   2.899   3.729
 1532SOL    HW2 5253   1.164   2.790   3.792
 1533SOL     OW 5254   1.861   3.431   4.575
 1533SOL    HW1 5255   1.790   3.419   4.505
 1533SOL    HW2 5256   1.862   3.352   4.635
 1534SOL     OW 5257   0.221   3.176   5.568
 1534SOL    HW1 5258   0.156   3.103   5.547
 1534SOL    HW2 5259   0.225   3.190   5.666
 1535SOL     OW 5260   0.079   3.102   4.377
 1535SOL    HW1 5261   0.078   3.055   4.465
 1535SOL    HW2 5262   0.161   3.074   4.326
 1536SOL     OW 5263   0.672   3.253   5.348
 1536SOL    HW1 5264   0.594   3.203   5.386
 1536SOL    HW2 5265   0.669   3.348   5.379
 1537SOL     OW 5266   1.824   2.054   4.951
 1537SOL    HW1 5267   1.820   1.964   4.995
 1537SOL    HW2 5268   1.827   2.043   4.852
 1538SOL     OW 5269   0.428   2.286   4.244
 1538SOL    HW1 5270   0.458   2.214   4.182
 1538SOL    HW2 5271   0.389   2.246   4.327
 1539SOL     OW 5272   1.705   3.349   4.828
 1539SOL    HW1 5273   1.612   3.324   4.801
 1539SOL    HW2 5274   1.731   3.299   4.910
 1540SOL     OW 5275   0.317   2.409   5.004
 1540SOL    HW1 5276   0.355   2.350   5.076
 1540SOL    HW2 5277   0.357   2.383   4.916
 1541SOL     OW 5278   0.812   3.448   4.411
 1541SOL    HW1 5279   0.844   3.458   4.317
 1541SOL    HW2 5280   0.733   3.386   4.413
 1542SOL     OW 5281   1.424   2.076   4.836
 1542SOL    HW1 5282   1.476   2.011   4.891
 1542SOL    HW2 5283   1.375   2.139   4.897
 1543SOL     OW 5284   1.001   1.896   4.878
 1543SOL    HW1 5285   0.938   1.824   4.847
 1543SOL    HW2 5286   1.094   1.860   4.878
 1544SOL     OW 5287   0.770   3.192   4.025
 1544SOL    HW1 5288   0.724   3.105   4.042
 1544SOL    HW2 5289   0.861   3.189   4.066
 1545SOL     OW 5290   0.618   3.429   5.008
 1545SOL    HW1 5291   0.613   3.511   5.065
 1545SOL    HW2 5292   0.707   3.426   4.963
 1546SOL     OW 5293   1.352   1.914   3.892
 1546SOL    HW1 5294   1.387   1.873   3.808
 1546SOL    HW2 5295   1.262   1.876   3.912
 1547SOL     OW 5296   1.300   2.315   4.415
 1547SOL    HW1 5297   1.241   2.395   4.419
 1547SOL    HW2 5298   1.315   2.280   4.508
 1548SOL     OW 5299   1.593   2.083   4.606
 1548SOL    HW1 5300   1.509   2.082   4.660
 1548SOL    HW2 5301   1.595   2.166   4.550
 1549SOL     OW 5302   0.039   2.939   4.024
 1549SOL    HW1 5303   0.138   2.928   4.015
 1549SOL    HW2 5304  -0.001   2.853   4.056
 1550SOL     OW 5305   0.875   3.508   4.061
 1550SOL    HW1 5306   0.798   3.473   4.007
 1550SOL    HW2 5307   0.843   3.579   4.123
 1551SOL     OW 5308   0.230   2.490   5.699
 1551SOL    HW1 5309   0.137   2.488   5.736
 1551SOL    HW2 5310   0.231   2.451   5.607
 1552SOL     OW 5311   0.225   2.137   6.582
 1552SOL    HW1 5312   0.260   2.120   6.674
 1552SOL    HW2 5313   0.137   2.092   6.570
 1553SOL     OW 5314   0.019   2.230   6.233
 1553SOL    HW1 5315  -0.063   2.273   6.272
 1553SOL    HW2 5316  -0.009   2.157   6.170
 1554SOL     OW 5317   0.569   3.137   6.751
 1554SOL    HW1 5318   0.476   3.130   6.714
 1554SOL    HW2 5319   0.580   3.226   6.795
 1555SOL     OW 5320   1.555   3.373   6.289
 1555SOL    HW1 5321   1.498   3.357   6.370
 1555SOL    HW2 5322   1.496   3.383   6.209
 1556SOL     OW 5323   1.135   2.565   6.303
 1556SOL    HW1 5324   1.192   2.643   6.278
 1556SOL    HW2 5325   1.075   2.591   6.379
 1557SOL     OW 5326   1.755   2.469   5.817
 1557SOL    HW1 5327   1.743   2.456   5.718
 1557SOL    HW2 5328   1.725   2.388   5.866
 1558SOL     OW 5329   0.768   3.006   6.609
 1558SOL    HW1 5330   0.690   3.023   6.669
 1558SOL    HW2 5331   0.802   3.093   6.573
 1559SOL     OW 5332   0.850   2.660   7.409
 1559SOL    HW1 5333   0.846   2.736   7.474
 1559SOL    HW2 5334   0.872   2.696   7.318
 1560SOL     OW 5335   0.685   2.874   6.251
 1560SOL    HW1 5336   0.754   2.858   6.321
 1560SOL    HW2 5337   0.612   2.931   6.289
 1561SOL     OW 5338   0.686   3.023   7.389
 1561SOL    HW1 5339   0.746   3.102   7.403
 1561SOL    HW2 5340   0.600   3.054   7.348
 1562SOL     OW 5341   0.335   3.297   6.647
 1562SOL    HW1 5342   0.257   3.266   6.594
 1562SOL    HW2 5343   0.393   3.355   6.590
 1563SOL     OW 5344   1.460   3.367   6.925
 1563SOL    HW1 5345   1.484   3.461   6.951
 1563SOL    HW2 5346   1.444   3.313   7.007
 1564SOL     OW 5347   0.438   2.254   7.085
 1564SOL    HW1 5348   0.520   2.198   7.094
 1564SOL    HW2 5349   0.357   2.196   7.089
 1565SOL     OW 5350   1.603   2.309   6.323
 1565SOL    HW1 5351   1.529   2.355   6.273
 1565SOL    HW2 5352   1.654   2.377   6.376
 1566SOL     OW 5353   0.231   3.575   6.069
 1566SOL    HW1 5354   0.265   3.652   6.123
 1566SOL    HW2 5355   0.275   3.575   5.979
 1567SOL     OW 5356   1.127   3.203   7.276
 1567SOL    HW1 5357   1.174   3.203   7.364
 1567SOL    HW2 5358   1.079   3.116   7.265
 1568SOL     OW 5359   0.230   3.296   6.124
 1568SOL    HW1 5360   0.204   3.392   6.124
 1568SOL    HW2 5361   0.159   3.242   6.169
 1569SOL     OW 5362   0.240   2.953   6.472
 1569SOL    HW1 5363   0.254   2.869   6.524
 1569SOL    HW2 5364   0.185   3.017   6.527
 1570SOL     OW 5365   0.620   3.648   7.025
 1570SOL    HW1 5366   0.528   3.631   7.060
 1570SOL    HW2 5367   0.648   3.740   7.051
 1571SOL     OW 5368   0.606   2.826   5.709
 1571SOL    HW1 5369   0.613   2.910   5.655
 1571SOL    HW2 5370   0.652   2.839   5.797
 1572SOL     OW 5371   1.594   1.976   7.066
 1572SOL    HW1 5372   1.576   2.043   6.994
 1572SOL    HW2 5373   1.591   2.022   7.155
 1573SOL     OW 5374   0.122   2.505   6.149
 1573SOL    HW1 5375   0.077   2.417   6.166
 1573SOL    HW2 5376   0.121   2.559   6.233
 1574SOL     OW 5377   1.842   3.629   5.945
 1574SOL    HW1 5378   1.896   3.600   6.025
 1574SOL    HW2 5379   1.872   3.719   5.916
 1575SOL     OW 5380   0.027   3.458   5.703
 1575SOL    HW1 5381   0.008   3.362   5.724
 1575SOL    HW2 5382  -0.006   3.516   5.778
 1576SOL     OW 5383   1.689   2.784   6.198
 1576SOL    HW1 5384   1.784   2.755   6.206
 1576SOL    HW2 5385   1.681   2.849   6.123
 1577SOL     OW 5386   1.641   2.970   6.018
 1577SOL    HW1 5387   1.727   2.972   5.966
 1577SOL    HW2 5388   1.655   3.017   6.106
 1578SOL     OW 5389   0.113   2.599   7.183
 1578SOL    HW1 5390   0.201   2.586   7.228
 1578SOL    HW2 5391   0.100   2.696   7.161
 1579SOL     OW 5392   0.613   3.227   6.312
 1579SOL    HW1 5393   0.564   3.140   6.321
 1579SOL    HW2 5394   0.590   3.270   6.225
 1580SOL     OW 5395   1.293   3.090   7.009
 1580SOL    HW1 5396   1.330   3.017   6.951
 1580SOL    HW2 5397   1.345   3.095   7.094
 1581SOL     OW 5398   0.809   1.866   6.088
 1581SOL    HW1 5399   0.849   1.957   6.079
 1581SOL    HW2 5400   0.709   1.874   6.094
 1582SOL     OW 5401   0.197   2.838   6.850
 1582SOL    HW1 5402   0.286   2.793   6.836
 1582SOL    HW2 5403   0.124   2.773   6.831
 1583SOL     OW 5404   1.525   2.861   5.776
 1583SOL    HW1 5405   1.462   2.785   5.789
 1583SOL    HW2 5406   1.573   2.879   5.862
 1584SOL     OW 5407   1.187   3.654   7.202
 1584SOL    HW1 5408   1.211   3.714   7.126
 1584SOL    HW2 5409   1.194   3.559   7.172
 1585SOL     OW 5410   0.317   2.113   7.387
 1585SOL    HW1 5411   0.388   2.184   7.393
 1585SOL    HW2 5412   0.229   2.152   7.415
 1586SOL     OW 5413   1.466   3.279   6.539
 1586SOL    HW1 5414   1.407   3.285   6.619
 1586SOL    HW2 5415   1.451   3.191   6.493
 1587SOL     OW 5416   1.667   3.576   6.158
 1587SOL    HW1 5417   1.626   3.553   6.070
 1587SOL    HW2 5418   1.649   3.502   6.223
 1588SOL     OW 5419   0.598   2.591   5.856
 1588SOL    HW1 5420   0.622   2.660   5.788
 1588SOL    HW2 5421   0.520   2.624   5.910
 1589SOL     OW 5422   1.281   2.207   6.530
 1589SOL    HW1 5423   1.195   2.157   6.517
 1589SOL    HW2 5424   1.343   2.153   6.586
 1590SOL     OW 5425   1.576   3.524   5.893
 1590SOL    HW1 5426   1.665   3.570   5.896
 1590SOL    HW2 5427   1.555   3.500   5.798
 1591SOL     OW 5428   0.807   2.467   7.051
 1591SOL    HW1 5429   0.760   2.464   7.140
 1591SOL    HW2 5430   0.756   2.412   6.985
 1592SOL     OW 5431   1.394   2.331   7.260
 1592SOL    HW1 5432   1.374   2.374   7.348
 1592SOL    HW2 5433   1.472   2.269   7.269
 1593SOL     OW 5434   0.973   2.752   7.158
 1593SOL    HW1 5435   1.019   2.668   7.129
 1593SOL    HW2 5436   0.917   2.786   7.083
 1594SOL     OW 5437   0.991   2.272   6.828
 1594SOL    HW1 5438   0.914   2.306   6.882
 1594SOL    HW2 5439   0.957   2.221   6.749
 1595SOL     OW 5440   1.041   2.563   6.015
 1595SOL    HW1 5441   1.067   2.559   6.111
 1595SOL    HW2 5442   0.956   2.512   6.001
 1596SOL     OW 5443   0.076   2.673   6.375
 1596SOL    HW1 5444   0.175   2.661   6.384
 1596SOL    HW2 5445   0.052   2.768   6.396
 1597SOL     OW 5446   0.130   3.683   7.157
 1597SOL    HW1 5447   0.120   3.668   7.256
 1597SOL    HW2 5448   0.044   3.719   7.121
 1598SOL     OW 5449   0.865   2.210   5.781
 1598SOL    HW1 5450   0.924   2.273   5.732
 1598SOL    HW2 5451   0.884   2.116   5.752
 1599SOL     OW 5452   1.719   2.447   7.417
 1599SOL    HW1 5453   1.693   2.536   7.381
 1599SOL    HW2 5454   1.717   2.379   7.344
 1600SOL     OW 5455   1.362   3.006   6.131
 1600SOL    HW1 5456   1.445   2.977   6.083
 1600SOL    HW2 5457   1.313   3.073   6.075
 1601SOL     OW 5458   0.550   2.058   6.471
 1601SOL    HW1 5459   0.545   2.053   6.571
 1601SOL    HW2 5460   0.552   2.154   6.442
 1602SOL     OW 5461   1.008   3.318   6.063
 1602SOL    HW1 5462   0.962   3.390   6.011
 1602SOL    HW2 5463   1.004   3.338   6.161
 1603SOL     OW 5464   0.351   3.663   6.439
 1603SOL    HW1 5465   0.401   3.577   6.445
 1603SOL    HW2 5466   0.416   3.740   6.436
 1604SOL     OW 5467   1.795   2.928   6.459
 1604SOL    HW1 5468   1.733   2.913   6.383
 1604SOL    HW2 5469   1.743   2.939   6.544
 1605SOL     OW 5470   1.227   3.412   7.092
 1605SOL    HW1 5471   1.233   3.335   7.156
 1605SOL    HW2 5472   1.175   3.386   7.012
 1606SOL     OW 5473   0.321   2.805   5.828
 1606SOL    HW1 5474   0.403   2.844   5.786
 1606SOL    HW2 5475   0.294   2.723   5.779
 1607SOL     OW 5476   1.458   2.597   6.314
 1607SOL    HW1 5477   1.453   2.532   6.389
 1607SOL    HW2 5478   1.538   2.656   6.327
 1608SOL     OW 5479   0.461   3.128   7.313
 1608SOL    HW1 5480   0.411   3.129   7.227
 1608SOL    HW2 5481   0.398   3.110   7.389
 1609SOL     OW 5482   1.111   3.638   5.823
 1609SOL    HW1 5483   1.051   3.576   5.873
 1609SOL    HW2 5484   1.142   3.594   5.738
 1610SOL     OW 5485   0.202   2.147   7.084
 1610SOL    HW1 5486   0.122   2.207   7.071
 1610SOL    HW2 5487   0.192   2.098   7.170
 1611SOL     OW 5488   1.632   3.239   5.667
 1611SOL    HW1 5489   1.600   3.333   5.657
 1611SOL    HW2 5490   1.556   3.176   5.655
 1612SOL     OW 5491   0.464   3.605   5.909
 1612SOL    HW1 5492   0.497   3.644   5.995
 1612SOL    HW2 5493   0.540   3.598   5.844
 1613SOL     OW 5494   1.400   1.969   6.012
 1613SOL    HW1 5495   1.376   1.932   5.922
 1613SOL    HW2 5496   1.499   1.985   6.016
 1614SOL     OW 5497   0.249   3.647   6.827
 1614SOL    HW1 5498   0.306   3.582   6.877
 1614SOL    HW2 5499   0.233   3.614   6.734
 1615SOL     OW 5500   0.940   3.560   6.490
 1615SOL    HW1 5501   1.020   3.503   6.511
 1615SOL    HW2 5502   0.891   3.520   6.413
 1616SOL     OW 5503   0.382   2.562   6.066
 1616SOL    HW1 5504   0.427   2.472   6.063
 1616SOL    HW2 5505   0.288   2.551   6.099
 1617SOL     OW 5506   1.547   2.084   7.315
 1617SOL    HW1 5507   1.542   2.121   7.407
 1617SOL    HW2 5508   1.475   2.015   7.303
 1618SOL     OW 5509   0.614   1.984   5.703
 1618SOL    HW1 5510   0.712   1.962   5.710
 1618SOL    HW2 5511   0.583   1.967   5.610
 1619SOL     OW 5512   0.781   2.126   7.335
 1619SOL    HW1 5513   0.848   2.065   7.378
 1619SOL    HW2 5514   0.708   2.145   7.400
 1620SOL     OW 5515   0.888   3.376   6.781
 1620SOL    HW1 5516   0.865   3.351   6.687
 1620SOL    HW2 5517   0.949   3.307   6.820
 1621SOL     OW 5518   1.351   2.452   7.019
 1621SOL    HW1 5519   1.379   2.409   7.104
 1621SOL    HW2 5520   1.376   2.548   7.020
 1622SOL     OW 5521   0.803   3.264   6.510
 1622SOL    HW1 5522   0.893   3.278   6.468
 1622SOL    HW2 5523   0.732   3.266   6.439
 1623SOL     OW 5524   0.922   2.365   6.485
 1623SOL    HW1 5525   0.897   2.356   6.389
 1623SOL    HW2 5526   0.970   2.283   6.516
 1624SOL     OW 5527   0.539   1.926   6.098
 1624SOL    HW1 5528   0.458   1.927   6.156
 1624SOL    HW2 5529   0.542   2.009   6.043
 1625SOL     OW 5530   1.434   3.050   5.627
 1625SOL    HW1 5531   1.466   2.974   5.684
 1625SOL    HW2 5532   1.342   3.077   5.657
 1626SOL     OW 5533   0.297   1.897   5.757
 1626SOL    HW1 5534   0.346   1.981   5.736
 1626SOL    HW2 5535   0.359   1.832   5.802
 1627SOL     OW 5536   0.935   2.098   6.066
 1627SOL    HW1 5537   0.887   2.139   5.988
 1627SOL    HW2 5538   1.034   2.096   6.047
 1628SOL     OW 5539   1.076   2.545   7.050
 1628SOL    HW1 5540   0.996   2.484   7.053
 1628SOL    HW2 5541   1.157   2.492   7.026
 1629SOL     OW 5542   1.227   3.432   6.379
 1629SOL    HW1 5543   1.248   3.506   6.314
 1629SOL    HW2 5544   1.295   3.432   6.452
 1630SOL     OW 5545   0.459   3.014   6.327
 1630SOL    HW1 5546   0.388   2.987   6.392
 1630SOL    HW2 5547   0.433   2.986   6.234
 1631SOL     OW 5548   1.271   3.659   6.177
 1631SOL    HW1 5549   1.315   3.723   6.113
 1631SOL    HW2 5550   1.221   3.711   6.247
 1632SOL     OW 5551   1.032   2.411   5.602
 1632SOL    HW1 5552   0.991   2.493   5.563
 1632SOL    HW2 5553   1.096   2.437   5.675
 1633SOL     OW 5554   0.078   2.418   6.972
 1633SOL    HW1 5555   0.170   2.417   6.931
 1633SOL    HW2 5556   0.072   2.492   7.039
 1634SOL     OW 5557   0.561   2.084   6.733
 1634SOL    HW1 5558   0.599   2.000   6.770
 1634SOL    HW2 5559   0.473   2.103   6.777
 1635SOL     OW 5560   0.866   2.316   6.228
 1635SOL    HW1 5561   0.834   2.388   6.166
 1635SOL    HW2 5562   0.890   2.235   6.175
 1636SOL     OW 5563   1.017   1.901   6.339
 1636SOL    HW1 5564   0.945   1.906   6.270
 1636SOL    HW2 5565   0.993   1.832   6.408
 1637SOL     OW 5566   1.429   3.035   6.453
 1637SOL    HW1 5567   1.374   2.951   6.446
 1637SOL    HW2 5568   1.455   3.064   6.361
 1638SOL     OW 5569   1.466   2.452   6.578
 1638SOL    HW1 5570   1.436   2.357   6.585
 1638SOL    HW2 5571   1.539   2.468   6.644
 1639SOL     OW 5572   1.857   2.695   5.963
 1639SOL    HW1 5573   1.899   2.631   6.027
 1639SOL    HW2 5574   1.819   2.644   5.885
 1640SOL     OW 5575   0.488   3.247   5.760
 1640SOL    HW1 5576   0.401   3.232   5.807
 1640SOL    HW2 5577   0.471   3.273   5.665
 1641SOL     OW 5578   1.664   3.142   6.243
 1641SOL    HW1 5579   1.763   3.150   6.257
 1641SOL    HW2 5580   1.619   3.226   6.274
 1642SOL     OW 5581   1.390   2.437   5.664
 1642SOL    HW1 5582   1.336   2.416   5.745
 1642SOL    HW2 5583   1.481   2.396   5.673
 1643SOL     OW 5584   0.527   2.118   5.914
 1643SOL    HW1 5585   0.554   2.059   5.839
 1643SOL    HW2 5586   0.527   2.213   5.883
 1644SOL     OW 5587   1.754   3.085   7.174
 1644SOL    HW1 5588   1.845   3.046   7.161
 1644SOL    HW2 5589   1.762   3.181   7.198
 1645SOL     OW 5590   1.064   3.209   6.926
 1645SOL    HW1 5591   0.984   3.186   6.981
 1645SOL    HW2 5592   1.147   3.183   6.975
 1646SOL     OW 5593   1.592   3.491   7.211
 1646SOL    HW1 5594   1.619   3.525   7.121
 1646SOL    HW2 5595   1.671   3.453   7.257
 1647SOL     OW 5596   1.111   3.057   6.686
 1647SOL    HW1 5597   1.071   3.101   6.767
 1647SOL    HW2 5598   1.070   3.094   6.603
 1648SOL     OW 5599   1.638   2.961   6.665
 1648SOL    HW1 5600   1.643   3.042   6.724
 1648SOL    HW2 5601   1.552   2.963   6.614
 1649SOL     OW 5602   0.915   1.951   6.988
 1649SOL    HW1 5603   0.940   1.931   6.893
 1649SOL    HW2 5604   0.987   2.007   7.030
 1650SOL     OW 5605   0.980   2.978   7.305
 1650SOL    HW1 5606   0.881   2.984   7.315
 1650SOL    HW2 5607   1.003   2.898   7.249
 1651SOL     OW 5608   0.705   2.912   5.954
 1651SOL    HW1 5609   0.691   2.919   6.053
 1651SOL    HW2 5610   0.789   2.861   5.936
 1652SOL     OW 5611   0.410   2.675   6.837
 1652SOL    HW1 5612   0.496   2.687   6.887
 1652SOL    HW2 5613   0.368   2.588   6.864
 1653SOL     OW 5614   1.274   2.248   6.848
 1653SOL    HW1 5615   1.295   2.322   6.912
 1653SOL    HW2 5616   1.185   2.265   6.805
 1654SOL     OW 5617   0.064   3.426   6.917
 1654SOL    HW1 5618   0.018   3.508   6.883
 1654SOL    HW2 5619   0.162   3.445   6.926
 1655SOL     OW 5620   0.367   2.962   6.087
 1655SOL    HW1 5621   0.360   3.045   6.031
 1655SOL    HW2 5622   0.371   2.882   6.027
 1656SOL     OW 5623   0.566   2.399   6.451
 1656SOL    HW1 5624   0.578   2.465   6.377
 1656SOL    HW2 5625   0.612   2.433   6.534
 1657SOL     OW 5626   1.252   3.210   5.974
 1657SOL    HW1 5627   1.302   3.287   6.014
 1657SOL    HW2 5628   1.157   3.212   6.006
 1658SOL     OW 5629   1.272   3.307   6.728
 1658SOL    HW1 5630   1.319   3.320   6.815
 1658SOL    HW2 5631   1.206   3.233   6.737
 1659SOL     OW 5632   1.582   2.501   6.058
 1659SOL    HW1 5633   1.551   2.562   6.131
 1659SOL    HW2 5634   1.632   2.553   5.989
 1660SOL     OW 5635   0.354   3.372   6.915
 1660SOL    HW1 5636   0.333   3.328   6.828
 1660SOL    HW2 5637   0.451   3.398   6.918
 1661SOL     OW 5638   0.402   2.613   7.184
 1661SOL    HW1 5639   0.470   2.668   7.137
 1661SOL    HW2 5640   0.442   2.525   7.211
 1662SOL     OW 5641   1.587   2.641   7.256
 1662SOL    HW1 5642   1.495   2.679   7.251
 1662SOL    HW2 5643   1.647   2.688   7.191
 1663SOL     OW 5644   1.013   1.967   7.356
 1663SOL    HW1 5645   1.019   2.052   7.304
 1663SOL    HW2 5646   1.045   1.891   7.299
 1664SOL     OW 5647   0.504   1.912   7.326
 1664SOL    HW1 5648   0.462   1.855   7.256
 1664SOL    HW2 5649   0.438   1.981   7.358
 1665SOL     OW 5650   0.573   2.732   6.615
 1665SOL    HW1 5651   0.617   2.821   6.606
 1665SOL    HW2 5652   0.510   2.732   6.692
 1666SOL     OW 5653   1.360   2.724   6.631
 1666SOL    HW1 5654   1.285   2.724   6.565
 1666SOL    HW2 5655   1.397   2.632   6.640
 1667SOL     OW 5656   1.209   2.387   5.861
 1667SOL    HW1 5657   1.222   2.303   5.915
 1667SOL    HW2 5658   1.180   2.461   5.921
 1668SOL     OW 5659   0.307   2.075   6.817
 1668SOL    HW1 5660   0.284   2.112   6.907
 1668SOL    HW2 5661   0.277   1.980   6.811
 1669SOL     OW 5662   0.037   3.172   6.868
 1669SOL    HW1 5663   0.090   3.123   6.936
 1669SOL    HW2 5664   0.059   3.270   6.873
 1670SOL     OW 5665   0.732   2.496   6.650
 1670SOL    HW1 5666   0.791   2.470   6.574
 1670SOL    HW2 5667   0.704   2.592   6.639
 1671SOL     OW 5668   1.728   2.797   7.440
 1671SOL    HW1 5669   1.682   2.790   7.351
 1671SOL    HW2 5670   1.666   2.841   7.506
 1672SOL     OW 5671   0.307   1.925   6.204
 1672SOL    HW1 5672   0.296   2.019   6.237
 1672SOL    HW2 5673   0.302   1.862   6.281
 1673SOL     OW 5674   1.622   2.229   5.960
 1673SOL    HW1 5675   1.624   2.153   6.024
 1673SOL    HW2 5676   1.574   2.306   6.000
 1674SOL     OW 5677   1.023   2.628   6.552
 1674SOL    HW1 5678   1.038   2.649   6.648
 1674SOL    HW2 5679   0.993   2.533   6.543
 1675SOL     OW 5680   0.980   3.435   7.286
 1675SOL    HW1 5681   0.960   3.479   7.198
 1675SOL    HW2 5682   1.019   3.344   7.270
 1676SOL     OW 5683   1.859   3.380   7.191
 1676SOL    HW1 5684   1.873   3.407   7.096
 1676SOL    HW2 5685   1.942   3.402   7.244
 1677SOL     OW 5686   0.350   2.760   7.390
 1677SOL    HW1 5687   0.426   2.804   7.438
 1677SOL    HW2 5688   0.385   2.713   7.308
 1678SOL     OW 5689   1.540   2.136   5.711
 1678SOL    HW1 5690   1.479   2.061   5.734
 1678SOL    HW2 5691   1.562   2.188   5.794
 1679SOL     OW 5692   1.303   2.700   5.628
 1679SOL    HW1 5693   1.337   2.607   5.643
 1679SOL    HW2 5694   1.321   2.727   5.533
 1680SOL     OW 5695   1.068   3.195   6.435
 1680SOL    HW1 5696   1.075   3.111   6.380
 1680SOL    HW2 5697   1.130   3.264   6.399
 1681SOL     OW 5698   0.319   2.672   6.535
 1681SOL    HW1 5699   0.412   2.708   6.540
 1681SOL    HW2 5700   0.313   2.587   6.587
 1682SOL     OW 5701   0.339   2.371   6.592
 1682SOL    HW1 5702   0.287   2.288   6.575
 1682SOL    HW2 5703   0.416   2.376   6.528
 1683SOL     OW 5704   1.138   2.242   7.264
 1683SOL    HW1 5705   1.093   2.305   7.328
 1683SOL    HW2 5706   1.231   2.273   7.247
 1684SOL     OW 5707   1.160   2.069   7.063
 1684SOL    HW1 5708   1.160   2.133   7.140
 1684SOL    HW2 5709   1.188   2.117   6.980
 1685SOL     OW 5710   0.008   3.188   5.786
 1685SOL    HW1 5711  -0.085   3.209   5.755
 1685SOL    HW2 5712   0.018   3.089   5.799
 1686SOL     OW 5713   0.088   3.663   6.513
 1686SOL    HW1 5714   0.046   3.577   6.486
 1686SOL    HW2 5715   0.182   3.666   6.479
 1687SOL     OW 5716   0.504   3.430   6.496
 1687SOL    HW1 5717   0.570   3.504   6.505
 1687SOL    HW2 5718   0.548   3.351   6.454
 1688SOL     OW 5719   1.002   2.658   6.824
 1688SOL    HW1 5720   1.043   2.626   6.910
 1688SOL    HW2 5721   0.906   2.631   6.821
 1689SOL     OW 5722   0.040   2.406   6.700
 1689SOL    HW1 5723   0.125   2.373   6.659
 1689SOL    HW2 5724   0.053   2.421   6.798
 1690SOL     OW 5725   0.189   2.382   7.308
 1690SOL    HW1 5726   0.248   2.342   7.238
 1690SOL    HW2 5727   0.131   2.453   7.267
 1691SOL     OW 5728   1.369   2.812   7.246
 1691SOL    HW1 5729   1.408   2.901   7.266
 1691SOL    HW2 5730   1.379   2.792   7.149
 1692SOL     OW 5731   0.815   2.434   5.911
 1692SOL    HW1 5732   0.822   2.345   5.865
 1692SOL    HW2 5733   0.721   2.468   5.903
 1693SOL     OW 5734   1.657   2.466   6.792
 1693SOL    HW1 5735   1.619   2.397   6.854
 1693SOL    HW2 5736   1.739   2.430   6.748
 1694SOL     OW 5737   0.252   3.426   7.330
 1694SOL    HW1 5738   0.222   3.483   7.406
 1694SOL    HW2 5739   0.245   3.329   7.356
 1695SOL     OW 5740   0.671   2.326   6.855
 1695SOL    HW1 5741   0.637   2.237   6.825
 1695SOL    HW2 5742   0.697   2.380   6.775
 1696SOL     OW 5743   0.930   3.540   7.051
 1696SOL    HW1 5744   0.906   3.522   6.956
 1696SOL    HW2 5745   0.960   3.634   7.061
 1697SOL     OW 5746   0.473   2.362   5.777
 1697SOL    HW1 5747   0.534   2.442   5.781
 1697SOL    HW2 5748   0.378   2.393   5.784
 1698SOL     OW 5749   0.159   2.999   7.052
 1698SOL    HW1 5750   0.181   2.938   7.128
 1698SOL    HW2 5751   0.169   2.950   6.966
 1699SOL     OW 5752   1.347   2.921   6.820
 1699SOL    HW1 5753   1.371   2.858   6.746
 1699SOL    HW2 5754   1.257   2.961   6.802
 1700SOL     OW 5755   1.302   2.717   5.895
 1700SOL    HW1 5756   1.216   2.686   5.937
 1700SOL    HW2 5757   1.298   2.703   5.796
 1701SOL     OW 5758   1.759   3.609   6.740
 1701SOL    HW1 5759   1.820   3.639   6.667
 1701SOL    HW2 5760   1.721   3.520   6.718
 1702SOL     OW 5761   1.252   3.593   6.714
 1702SOL    HW1 5762   1.336   3.598   6.660
 1702SOL    HW2 5763   1.229   3.497   6.732
 1703SOL     OW 5764   0.083   3.120   6.608
 1703SOL    HW1 5765   0.078   3.119   6.708
 1703SOL    HW2 5766   0.000   3.079   6.570
 1704SOL     OW 5767   0.688   3.524   7.302
 1704SOL    HW1 5768   0.632   3.605   7.311
 1704SOL    HW2 5769   0.740   3.528   7.216
 1705SOL     OW 5770   1.726   1.997   6.109
 1705SOL    HW1 5771   1.799   1.980   6.042
 1705SOL    HW2 5772   1.695   1.910   6.147
 1706SOL     OW 5773   1.388   3.435   6.063
 1706SOL    HW1 5774   1.455   3.447   5.989
 1706SOL    HW2 5775   1.348   3.524   6.086
 1707SOL     OW 5776   0.130   3.656   7.437
 1707SOL    HW1 5777   0.089   3.582   7.490
 1707SOL    HW2 5778   0.194   3.707   7.495
 1708SOL     OW 5779   1.280   2.789   6.258
 1708SOL    HW1 5780   1.340   2.708   6.260
 1708SOL    HW2 5781   1.320   2.858   6.198
 1709SOL     OW 5782   0.830   3.135   7.008
 1709SOL    HW1 5783   0.825   3.168   7.103
 1709SOL    HW2 5784   0.744   3.154   6.962
 1710SOL     OW 5785   0.672   3.478   5.740
 1710SOL    HW1 5786   0.681   3.488   5.641
 1710SOL    HW2 5787   0.632   3.389   5.761
 1711SOL     OW 5788   1.650   3.582   6.980
 1711SOL    HW1 5789   1.703   3.592   6.896
 1711SOL    HW2 5790   1.623   3.672   7.014
 1712SOL     OW 5791   1.841   2.037   6.549
 1712SOL    HW1 5792   1.880   1.952   6.513
 1712SOL    HW2 5793   1.743   2.039   6.530
 1713SOL     OW 5794   0.263   2.188   6.306
 1713SOL    HW1 5795   0.184   2.239   6.272
 1713SOL    HW2 5796   0.254   2.173   6.404
 1714SOL     OW 5797   1.194   3.474   5.617
 1714SOL    HW1 5798   1.200   3.381   5.654
 1714SOL    HW2 5799   1.135   3.474   5.537
 1715SOL     OW 5800   0.822   2.864   6.958
 1715SOL    HW1 5801   0.862   2.863   6.866
 1715SOL    HW2 5802   0.832   2.956   6.998
 1716SOL     OW 5803   0.916   2.772   5.877
 1716SOL    HW1 5804   0.979   2.810   5.809
 1716SOL    HW2 5805   0.956   2.689   5.916
 1717SOL     OW 5806   1.504   3.469   5.630
 1717SOL    HW1 5807   1.412   3.506   5.637
 1717SOL    HW2 5808   1.542   3.489   5.540
 1718SOL     OW 5809   0.372   3.150   7.076
 1718SOL    HW1 5810   0.359   3.243   7.042
 1718SOL    HW2 5811   0.288   3.098   7.063
 1719SOL     OW 5812   1.614   3.154   6.875
 1719SOL    HW1 5813   1.674   3.157   6.955
 1719SOL    HW2 5814   1.539   3.218   6.888
 1720SOL     OW 5815   1.039   2.960   6.282
 1720SOL    HW1 5816   0.969   2.913   6.336
 1720SOL    HW2 5817   1.098   2.892   6.239
 1721SOL     OW 5818   1.014   2.098   6.557
 1721SOL    HW1 5819   1.006   2.062   6.464
 1721SOL    HW2 5820   1.012   2.022   6.622
 1722SOL     OW 5821   0.590   3.349   6.077
 1722SOL    HW1 5822   0.632   3.291   6.007
 1722SOL    HW2 5823   0.546   3.428   6.033
 1723SOL     OW 5824   1.709   2.247   6.967
 1723SOL    HW1 5825   1.782   2.316   6.971
 1723SOL    HW2 5826   1.737   2.172   6.908
 1724SOL     OW 5827   0.255   3.210   5.876
 1724SOL    HW1 5828   0.159   3.211   5.849
 1724SOL    HW2 5829   0.267   3.263   5.960
 1725SOL     OW 5830   0.105   2.875   7.312
 1725SOL    HW1 5831   0.028   2.842   7.366
 1725SOL    HW2 5832   0.190   2.845   7.354
 1726SOL     OW 5833   0.672   2.065   7.075
 1726SOL    HW1 5834   0.762   2.049   7.035
 1726SOL    HW2 5835   0.680   2.070   7.174
 1727SOL     OW 5836   0.075   2.207   5.619
 1727SOL    HW1 5837  -0.017   2.179   5.590
 1727SOL    HW2 5838   0.106   2.284   5.563
 1728SOL     OW 5839   1.440   2.718   6.984
 1728SOL    HW1 5840   1.383   2.770   6.921
 1728SOL    HW2 5841   1.536   2.730   6.960
 1729SOL     OW 5842   0.072   2.028   5.904
 1729SOL    HW1 5843   0.055   2.111   5.850
 1729SOL    HW2 5844   0.162   1.991   5.882
 1730SOL     OW 5845   1.183   3.197   5.705
 1730SOL    HW1 5846   1.084   3.186   5.707
 1730SOL    HW2 5847   1.217   3.212   5.798
 1731SOL     OW 5848   0.613   2.704   7.017
 1731SOL    HW1 5849   0.669   2.785   7.000
 1731SOL    HW2 5850   0.672   2.624   7.020
 1732SOL     OW 5851   1.493   3.629   6.545
 1732SOL    HW1 5852   1.526   3.693   6.476
 1732SOL    HW2 5853   1.559   3.623   6.620
 1733SOL     OW 5854   0.716   2.427   7.294
 1733SOL    HW1 5855   0.735   2.492   7.368
 1733SOL    HW2 5856   0.776   2.347   7.303
 1734SOL     OW 5857   1.450   3.082   7.219
 1734SOL    HW1 5858   1.441   3.072   7.318
 1734SOL    HW2 5859   1.546   3.075   7.193
 1735SOL     OW 5860   0.390   3.603   7.146
 1735SOL    HW1 5861   0.299   3.644   7.144
 1735SOL    HW2 5862   0.383   3.509   7.178
 1736SOL     OW 5863   1.674   2.745   6.840
 1736SOL    HW1 5864   1.647   2.656   6.803
 1736SOL    HW2 5865   1.675   2.813   6.767
 1737SOL     OW 5866   1.225   2.187   6.035
 1737SOL    HW1 5867   1.290   2.113   6.024
 1737SOL    HW2 5868   1.245   2.237   6.119
 1738SOL     OW 5869   0.594   2.607   6.238
 1738SOL    HW1 5870   0.644   2.692   6.219
 1738SOL    HW2 5871   0.506   2.609   6.190
 1739SOL     OW 5872   1.777   2.204   7.228
 1739SOL    HW1 5873   1.760   2.235   7.134
 1739SOL    HW2 5874   1.693   2.167   7.266
 1740SOL     OW 5875   1.730   2.796   7.103
 1740SOL    HW1 5876   1.768   2.887   7.118
 1740SOL    HW2 5877   1.722   2.779   7.004
 1741SOL     OW 5878   0.859   3.236   5.602
 1741SOL    HW1 5879   0.813   3.251   5.690
 1741SOL    HW2 5880   0.903   3.321   5.572
 1742SOL     OW 5881   0.661   3.652   6.539
 1742SOL    HW1 5882   0.615   3.740   6.526
 1742SOL    HW2 5883   0.760   3.664   6.532
 1743SOL     OW 5884   0.859   2.818   6.447
 1743SOL    HW1 5885   0.913   2.749   6.495
 1743SOL    HW2 5886   0.827   2.887   6.513
 1744SOL     OW 5887   1.083   2.846   5.673
 1744SOL    HW1 5888   1.060   2.899   5.591
 1744SOL    HW2 5889   1.164   2.790   5.654
 1745SOL     OW 5890   1.861   3.431   6.437
 1745SOL    HW1 5891   1.790   3.419   6.367
 1745SOL    HW2 5892   1.862   3.352   6.497
 1746SOL     OW 5893   0.221   3.176   7.430
 1746SOL    HW1 5894   0.156   3.103   7.409
 1746SOL    HW2 5895   0.225   3.190   7.528
 1747SOL     OW 5896   0.079   3.102   6.239
 1747SOL    HW1 5897   0.078   3.055   6.327
 1747SOL    HW2 5898   0.161   3.074   6.188
 1748SOL     OW 5899   0.672   3.253   7.210
 1748SOL    HW1 5900   0.594   3.203   7.248
 1748SOL    HW2 5901   0.669   3.348   7.241
 1749SOL     OW 5902   1.824   2.054   6.813
 1749SOL    HW1 5903   1.820   1.964   6.857
 1749SOL    HW2 5904   1.827   2.043   6.714
 1750SOL     OW 5905   0.428   2.286   6.106
 1750SOL    HW1 5906   0.458   2.214   6.044
 1750SOL    HW2 5907   0.389   2.246   6.189
 1751SOL     OW 5908   1.705   3.349   6.690
 1751SOL    HW1 5909   1.612   3.324   6.663
 1751SOL    HW2 5910   1.731   3.299   6.772
 1752SOL     OW 5911   0.317   2.409   6.866
 1752SOL    HW1 5912   0.355   2.350   6.938
 1752SOL    HW2 5913   0.357   2.383   6.778
 1753SOL     OW 5914   0.812   3.448   6.273
 1753SOL    HW1 5915   0.844   3.458   6.179
 1753SOL    HW2 5916   0.733   3.386   6.275
 1754SOL     OW 5917   1.424   2.076   6.698
 1754SOL    HW1 5918   1.476   2.011   6.753
 1754SOL    HW2 5919   1.375   2.139   6.759
 1755SOL     OW 5920   1.001   1.896   6.740
 1755SOL    HW1 5921   0.938   1.824   6.709
 1755SOL    HW2 5922   1.094   1.860   6.740
 1756SOL     OW 5923   0.770   3.192   5.887
 1756SOL    HW1 5924   0.724   3.105   5.904
 1756SOL    HW2 5925   0.861   3.189   5.928
 1757SOL     OW 5926   0.618   3.429   6.870
 1757SOL    HW1 5927   0.613   3.511   6.927
 1757SOL    HW2 5928   0.707   3.426   6.825
 1758SOL     OW 5929   1.352   1.914   5.754
 1758SOL    HW1 5930   1.387   1.873   5.670
 1758SOL    HW2 5931   1.262   1.876   5.774
 1759SOL     OW 5932   1.300   2.315   6.277
 1759SOL    HW1 5933   1.241   2.395   6.281
 1759SOL    HW2 5934   1.315   2.280   6.370
 1760SOL     OW 5935   1.593   2.083   6.468
 1760SOL    HW1 5936   1.509   2.082   6.522
 1760SOL    HW2 5937   1.595   2.166   6.412
 1761SOL     OW 5938   0.039   2.939   5.886
 1761SOL    HW1 5939   0.138   2.928   5.877
 1761SOL    HW2 5940  -0.001   2.853   5.918
 1762SOL     OW 5941   0.875   3.508   5.923
 1762SOL    HW1 5942   0.798   3.473   5.869
 1762SOL    HW2 5943   0.843   3.579   5.985
 1763SOL     OW 5944   0.230   2.490   7.561
 1763SOL    HW1 5945   0.137   2.488   7.598
 1763SOL    HW2 5946   0.231   2.451   7.469
 1764SOL     OW 5947   1.755   2.469   7.679
 1764SOL    HW1 5948   1.743   2.456   7.580
 1764SOL    HW2 5949   1.725   2.388   7.728
 1765SOL     OW 5950   0.231   3.575   7.931
 1765SOL    HW1 5951   0.265   3.652   7.985
 1765SOL    HW2 5952   0.275   3.575   7.841
 1766SOL     OW 5953   0.230   3.296   7.986
 1766SOL    HW1 5954   0.204   3.392   7.986
 1766SOL    HW2 5955   0.159   3.242   8.031
 1767SOL     OW 5956   0.606   2.826   7.571
 1767SOL    HW1 5957   0.613   2.910   7.517
 1767SOL    HW2 5958   0.652   2.839   7.659
 1768SOL     OW 5959   1.842   3.629   7.807
 1768SOL    HW1 5960   1.896   3.600   7.887
 1768SOL    HW2 5961   1.872   3.719   7.778
 1769SOL     OW 5962   0.027   3.458   7.565
 1769SOL    HW1 5963   0.008   3.362   7.586
 1769SOL    HW2 5964  -0.006   3.516   7.640
 1770SOL     OW 5965   1.689   2.784   8.060
 1770SOL    HW1 5966   1.784   2.755   8.068
 1770SOL    HW2 5967   1.681   2.849   7.985
 1771SOL     OW 5968   1.641   2.970   7.880
 1771SOL    HW1 5969   1.727   2.972   7.828
 1771SOL    HW2 5970   1.655   3.017   7.968
 1772SOL     OW 5971   0.809   1.866   7.950
 1772SOL    HW1 5972   0.849   1.957   7.941
 1772SOL    HW2 5973   0.709   1.874   7.956
 1773SOL     OW 5974   1.525   2.861   7.638
 1773SOL    HW1 5975   1.462   2.785   7.651
 1773SOL    HW2 5976   1.573   2.879   7.724
 1774SOL     OW 5977   0.598   2.591   7.718
 1774SOL    HW1 5978   0.622   2.660   7.650
 1774SOL    HW2 5979   0.520   2.624   7.772
 1775SOL     OW 5980   1.576   3.524   7.755
 1775SOL    HW1 5981   1.665   3.570   7.758
 1775SOL    HW2 5982   1.555   3.500   7.660
 1776SOL     OW 5983   0.076   2.673   8.237
 1776SOL    HW1 5984   0.175   2.661   8.246
 1776SOL    HW2 5985   0.052   2.768   8.258
 1777SOL     OW 5986   0.865   2.210   7.643
 1777SOL    HW1 5987   0.924   2.273   7.594
 1777SOL    HW2 5988   0.884   2.116   7.614
 1778SOL     OW 5989   0.321   2.805   7.690
 1778SOL    HW1 5990   0.403   2.844   7.648
 1778SOL    HW2 5991   0.294   2.723   7.641
 1779SOL     OW 5992   1.111   3.638   7.685
 1779SOL    HW1 5993   1.051   3.576   7.735
 1779SOL    HW2 5994   1.142   3.594   7.600
 1780SOL     OW 5995   1.632   3.239   7.529
 1780SOL    HW1 5996   1.600   3.333   7.519
 1780SOL    HW2 5997   1.556   3.176   7.517
 1781SOL     OW 5998   0.464   3.605   7.771
 1781SOL    HW1 5999   0.497   3.644   7.857
 1781SOL    HW2 6000   0.540   3.598   7.706
 1782SOL     OW 6001   1.400   1.969   7.874
 1782SOL    HW1 6002   1.376   1.932   7.784
 1782SOL    HW2 6003   1.499   1.985   7.878
 1783SOL     OW 6004   0.382   2.562   7.928
 1783SOL    HW1 6005   0.427   2.472   7.925
 1783SOL    HW2 6006   0.288   2.551   7.961
 1784SOL     OW 6007   0.614   1.984   7.565
 1784SOL    HW1 6008   0.712   1.962   7.572
 1784SOL    HW2 6009   0.583   1.967   7.472
 1785SOL     OW 6010   0.539   1.926   7.960
 1785SOL    HW1 6011   0.458   1.927   8.018
 1785SOL    HW2 6012   0.542   2.009   7.905
 1786SOL     OW 6013   1.434   3.050   7.489
 1786SOL    HW1 6014   1.466   2.974   7.546
 1786SOL    HW2 6015   1.342   3.077   7.519
 1787SOL     OW 6016   0.297   1.897   7.619
 1787SOL    HW1 6017   0.346   1.981   7.598
 1787SOL    HW2 6018   0.359   1.832   7.664
 1788SOL     OW 6019   0.935   2.098   7.928
 1788SOL    HW1 6020   0.887   2.139   7.850
 1788SOL    HW2 6021   1.034   2.096   7.909
 1789SOL     OW 6022   0.459   3.014   8.189
 1789SOL    HW1 6023   0.388   2.987   8.254
 1789SOL    HW2 6024   0.433   2.986   8.096
 1790SOL     OW 6025   1.271   3.659   8.039
 1790SOL    HW1 6026   1.315   3.723   7.975
 1790SOL    HW2 6027   1.221   3.711   8.109
 1791SOL     OW 6028   1.032   2.411   7.464
 1791SOL    HW1 6029   0.991   2.493   7.425
 1791SOL    HW2 6030   1.096   2.437   7.537
 1792SOL     OW 6031   1.857   2.695   7.825
 1792SOL    HW1 6032   1.899   2.631   7.889
 1792SOL    HW2 6033   1.819   2.644   7.747
 1793SOL     OW 6034   0.488   3.247   7.622
 1793SOL    HW1 6035   0.401   3.232   7.669
 1793SOL    HW2 6036   0.471   3.273   7.527
 1794SOL     OW 6037   1.390   2.437   7.526
 1794SOL    HW1 6038   1.336   2.416   7.607
 1794SOL    HW2 6039   1.481   2.396   7.535
 1795SOL     OW 6040   0.527   2.118   7.776
 1795SOL    HW1 6041   0.554   2.059   7.701
 1795SOL    HW2 6042   0.527   2.213   7.745
 1796SOL     OW 6043   0.705   2.912   7.816
 1796SOL    HW1 6044   0.691   2.919   7.915
 1796SOL    HW2 6045   0.789   2.861   7.798
 1797SOL     OW 6046   0.367   2.962   7.949
 1797SOL    HW1 6047   0.360   3.045   7.893
 1797SOL    HW2 6048   0.371   2.882   7.889
 1798SOL     OW 6049   1.252   3.210   7.836
 1798SOL    HW1 6050   1.302   3.287   7.876
 1798SOL    HW2 6051   1.157   3.212   7.868
 1799SOL     OW 6052   1.582   2.501   7.920
 1799SOL    HW1 6053   1.551   2.562   7.993
 1799SOL    HW2 6054   1.632   2.553   7.851
 1800SOL     OW 6055   1.209   2.387   7.723
 1800SOL    HW1 6056   1.222   2.303   7.777
 1800SOL    HW2 6057   1.180   2.461   7.783
 1801SOL     OW 6058   1.622   2.229   7.822
 1801SOL    HW1 6059   1.624   2.153   7.886
 1801SOL    HW2 6060   1.574   2.306   7.862
 1802SOL     OW 6061   1.540   2.136   7.573
 1802SOL    HW1 6062   1.479   2.061   7.596
 1802SOL    HW2 6063   1.562   2.188   7.656
 1803SOL     OW 6064   1.303   2.700   7.490
 1803SOL    HW1 6065   1.337   2.607   7.505
 1803SOL    HW2 6066   1.321   2.727   7.395
 1804SOL     OW 6067   0.008   3.188   7.648
 1804SOL    HW1 6068  -0.085   3.209   7.617
 1804SOL    HW2 6069   0.018   3.089   7.661
 1805SOL     OW 6070   0.815   2.434   7.773
 1805SOL    HW1 6071   0.822   2.345   7.727
 1805SOL    HW2 6072   0.721   2.468   7.765
 1806SOL     OW 6073   0.473   2.362   7.639
 1806SOL    HW1 6074   0.534   2.442   7.643
 1806SOL    HW2 6075   0.378   2.393   7.646
 1807SOL     OW 6076   1.302   2.717   7.757
 1807SOL    HW1 6077   1.216   2.686   7.799
 1807SOL    HW2 6078   1.298   2.703   7.658
 1808SOL     OW 6079   1.726   1.997   7.971
 1808SOL    HW1 6080   1.799   1.980   7.904
 1808SOL    HW2 6081   1.695   1.910   8.009
 1809SOL     OW 6082   1.388   3.435   7.925
 1809SOL    HW1 6083   1.455   3.447   7.851
 1809SOL    HW2 6084   1.348   3.524   7.948
 1810SOL     OW 6085   0.672   3.478   7.602
 1810SOL    HW1 6086   0.681   3.488   7.503
 1810SOL    HW2 6087   0.632   3.389   7.623
 1811SOL     OW 6088   1.194   3.474   7.479
 1811SOL    HW1 6089   1.200   3.381   7.516
 1811SOL    HW2 6090   1.135   3.474   7.399
 1812SOL     OW 6091   0.916   2.772   7.739
 1812SOL    HW1 6092   0.979   2.810   7.671
 1812SOL    HW2 6093   0.956   2.689   7.778
 1813SOL     OW 6094   1.504   3.469   7.492
 1813SOL    HW1 6095   1.412   3.506   7.499
 1813SOL    HW2 6096   1.542   3.489   7.402
 1814SOL     OW 6097   0.590   3.349   7.939
 1814SOL    HW1 6098   0.632   3.291   7.869
 1814SOL    HW2 6099   0.546   3.428   7.895
 1815SOL     OW 6100   0.255   3.210   7.738
 1815SOL    HW1 6101   0.159   3.211   7.711
 1815SOL    HW2 6102   0.267   3.263   7.822
 1816SOL     OW 6103   0.075   2.207   7.481
 1816SOL    HW1 6104  -0.017   2.179   7.452
 1816SOL    HW2 6105   0.106   2.284   7.425
 1817SOL     OW 6106   0.072   2.028   7.766
 1817SOL    HW1 6107   0.055   2.111   7.712
 1817SOL    HW2 6108   0.162   1.991   7.744
 1818SOL     OW 6109   1.183   3.197   7.567
 1818SOL    HW1 6110   1.084   3.186   7.569
 1818SOL    HW2 6111   1.217   3.212   7.660
 1819SOL     OW 6112   1.225   2.187   7.897
 1819SOL    HW1 6113   1.290   2.113   7.886
 1819SOL    HW2 6114   1.245   2.237   7.981
 1820SOL     OW 6115   0.594   2.607   8.100
 1820SOL    HW1 6116   0.644   2.692   8.081
 1820SOL    HW2 6117   0.506   2.609   8.052
 1821SOL     OW 6118   0.859   3.236   7.464
 1821SOL    HW1 6119   0.813   3.251   7.552
 1821SOL    HW2 6120   0.903   3.321   7.434
 1822SOL     OW 6121   1.083   2.846   7.535
 1822SOL    HW1 6122   1.060   2.899   7.453
 1822SOL    HW2 6123   1.164   2.790   7.516
 1823SOL     OW 6124   0.428   2.286   7.968
 1823SOL    HW1 6125   0.458   2.214   7.906
 1823SOL    HW2 6126   0.389   2.246   8.051
 1824SOL     OW 6127   0.770   3.192   7.749
 1824SOL    HW1 6128   0.724   3.105   7.766
 1824SOL    HW2 6129   0.861   3.189   7.790
 1825SOL     OW 6130   1.352   1.914   7.616
 1825SOL    HW1 6131   1.387   1.873   7.532
 1825SOL    HW2 6132   1.262   1.876   7.636
 1826SOL     OW 6133   0.039   2.939   7.748
 1826SOL    HW1 6134   0.138   2.928   7.739
 1826SOL    HW2 6135  -0.001   2.853   7.780
 1827SOL     OW 6136   0.875   3.508   7.785
 1827SOL    HW1 6137   0.798   3.473   7.731
 1827SOL    HW2 6138   0.843   3.579   7.847
 1828SOL     OW 6139   0.230   4.352   0.113
 1828SOL    HW1 6140   0.137   4.350   0.150
 1828SOL    HW2 6141   0.231   4.313   0.021
 1829SOL     OW 6142   0.225   3.999   0.996
 1829SOL    HW1 6143   0.260   3.982   1.088
 1829SOL    HW2 6144   0.137   3.954   0.984
 1830SOL     OW 6145   0.019   4.092   0.647
 1830SOL    HW1 6146  -0.063   4.135   0.686
 1830SOL    HW2 6147  -0.009   4.019   0.584
 1831SOL     OW 6148   0.569   4.999   1.165
 1831SOL    HW1 6149   0.476   4.992   1.128
 1831SOL    HW2 6150   0.580   5.088   1.209
 1832SOL     OW 6151   1.555   5.235   0.703
 1832SOL    HW1 6152   1.498   5.219   0.784
 1832SOL    HW2 6153   1.496   5.245   0.623
 1833SOL     OW 6154   1.135   4.427   0.717
 1833SOL    HW1 6155   1.192   4.505   0.692
 1833SOL    HW2 6156   1.075   4.453   0.793
 1834SOL     OW 6157   1.755   4.331   0.231
 1834SOL    HW1 6158   1.743   4.318   0.132
 1834SOL    HW2 6159   1.725   4.250   0.280
 1835SOL     OW 6160   0.768   4.868   1.023
 1835SOL    HW1 6161   0.690   4.885   1.083
 1835SOL    HW2 6162   0.802   4.955   0.987
 1836SOL     OW 6163   0.850   4.522   1.823
 1836SOL    HW1 6164   0.846   4.598   1.888
 1836SOL    HW2 6165   0.872   4.558   1.732
 1837SOL     OW 6166   0.685   4.736   0.665
 1837SOL    HW1 6167   0.754   4.720   0.735
 1837SOL    HW2 6168   0.612   4.793   0.703
 1838SOL     OW 6169   0.686   4.885   1.803
 1838SOL    HW1 6170   0.746   4.964   1.817
 1838SOL    HW2 6171   0.600   4.916   1.762
 1839SOL     OW 6172   0.335   5.159   1.061
 1839SOL    HW1 6173   0.257   5.128   1.008
 1839SOL    HW2 6174   0.393   5.217   1.004
 1840SOL     OW 6175   1.460   5.229   1.339
 1840SOL    HW1 6176   1.484   5.323   1.365
 1840SOL    HW2 6177   1.444   5.175   1.421
 1841SOL     OW 6178   0.438   4.116   1.499
 1841SOL    HW1 6179   0.520   4.060   1.508
 1841SOL    HW2 6180   0.357   4.058   1.503
 1842SOL     OW 6181   1.603   4.171   0.737
 1842SOL    HW1 6182   1.529   4.217   0.687
 1842SOL    HW2 6183   1.654   4.239   0.790
 1843SOL     OW 6184   1.127   5.065   1.690
 1843SOL    HW1 6185   1.174   5.065   1.778
 1843SOL    HW2 6186   1.079   4.978   1.679
 1844SOL     OW 6187   0.230   5.158   0.538
 1844SOL    HW1 6188   0.204   5.254   0.538
 1844SOL    HW2 6189   0.159   5.104   0.583
 1845SOL     OW 6190   0.240   4.815   0.886
 1845SOL    HW1 6191   0.254   4.731   0.938
 1845SOL    HW2 6192   0.185   4.879   0.941
 1846SOL     OW 6193   0.606   4.688   0.123
 1846SOL    HW1 6194   0.613   4.772   0.069
 1846SOL    HW2 6195   0.652   4.701   0.211
 1847SOL     OW 6196   1.594   3.838   1.480
 1847SOL    HW1 6197   1.576   3.905   1.408
 1847SOL    HW2 6198   1.591   3.884   1.569
 1848SOL     OW 6199   0.122   4.367   0.563
 1848SOL    HW1 6200   0.077   4.279   0.580
 1848SOL    HW2 6201   0.121   4.421   0.647
 1849SOL     OW 6202   0.027   5.320   0.117
 1849SOL    HW1 6203   0.008   5.224   0.138
 1849SOL    HW2 6204  -0.006   5.378   0.192
 1850SOL     OW 6205   1.689   4.646   0.612
 1850SOL    HW1 6206   1.784   4.617   0.620
 1850SOL    HW2 6207   1.681   4.711   0.537
 1851SOL     OW 6208   1.641   4.832   0.432
 1851SOL    HW1 6209   1.727   4.834   0.380
 1851SOL    HW2 6210   1.655   4.879   0.520
 1852SOL     OW 6211   0.113   4.461   1.597
 1852SOL    HW1 6212   0.201   4.448   1.642
 1852SOL    HW2 6213   0.100   4.558   1.575
 1853SOL     OW 6214   0.613   5.089   0.726
 1853SOL    HW1 6215   0.564   5.002   0.735
 1853SOL    HW2 6216   0.590   5.132   0.639
 1854SOL     OW 6217   1.293   4.952   1.423
 1854SOL    HW1 6218   1.330   4.879   1.365
 1854SOL    HW2 6219   1.345   4.957   1.508
 1855SOL     OW 6220   0.809   3.728   0.502
 1855SOL    HW1 6221   0.849   3.819   0.493
 1855SOL    HW2 6222   0.709   3.736   0.508
 1856SOL     OW 6223   0.197   4.700   1.264
 1856SOL    HW1 6224   0.286   4.655   1.250
 1856SOL    HW2 6225   0.124   4.635   1.245
 1857SOL     OW 6226   1.525   4.723   0.190
 1857SOL    HW1 6227   1.462   4.647   0.203
 1857SOL    HW2 6228   1.573   4.741   0.276
 1858SOL     OW 6229   0.317   3.975   1.801
 1858SOL    HW1 6230   0.388   4.046   1.807
 1858SOL    HW2 6231   0.229   4.014   1.829
 1859SOL     OW 6232   1.466   5.141   0.953
 1859SOL    HW1 6233   1.407   5.147   1.033
 1859SOL    HW2 6234   1.451   5.053   0.907
 1860SOL     OW 6235   0.598   4.453   0.270
 1860SOL    HW1 6236   0.622   4.522   0.202
 1860SOL    HW2 6237   0.520   4.486   0.324
 1861SOL     OW 6238   1.281   4.069   0.944
 1861SOL    HW1 6239   1.195   4.019   0.931
 1861SOL    HW2 6240   1.343   4.015   1.000
 1862SOL     OW 6241   0.807   4.329   1.465
 1862SOL    HW1 6242   0.760   4.326   1.554
 1862SOL    HW2 6243   0.756   4.274   1.399
 1863SOL     OW 6244   1.394   4.193   1.674
 1863SOL    HW1 6245   1.374   4.236   1.762
 1863SOL    HW2 6246   1.472   4.131   1.683
 1864SOL     OW 6247   0.973   4.614   1.572
 1864SOL    HW1 6248   1.019   4.530   1.543
 1864SOL    HW2 6249   0.917   4.648   1.497
 1865SOL     OW 6250   0.991   4.134   1.242
 1865SOL    HW1 6251   0.914   4.168   1.296
 1865SOL    HW2 6252   0.957   4.083   1.163
 1866SOL     OW 6253   1.041   4.425   0.429
 1866SOL    HW1 6254   1.067   4.421   0.525
 1866SOL    HW2 6255   0.956   4.374   0.415
 1867SOL     OW 6256   0.076   4.535   0.789
 1867SOL    HW1 6257   0.175   4.523   0.798
 1867SOL    HW2 6258   0.052   4.630   0.810
 1868SOL     OW 6259   0.865   4.072   0.195
 1868SOL    HW1 6260   0.924   4.135   0.146
 1868SOL    HW2 6261   0.884   3.978   0.166
 1869SOL     OW 6262   1.719   4.309   1.831
 1869SOL    HW1 6263   1.693   4.398   1.795
 1869SOL    HW2 6264   1.717   4.241   1.758
 1870SOL     OW 6265   1.362   4.868   0.545
 1870SOL    HW1 6266   1.445   4.839   0.497
 1870SOL    HW2 6267   1.313   4.935   0.489
 1871SOL     OW 6268   0.550   3.920   0.885
 1871SOL    HW1 6269   0.545   3.915   0.985
 1871SOL    HW2 6270   0.552   4.016   0.856
 1872SOL     OW 6271   1.008   5.180   0.477
 1872SOL    HW1 6272   0.962   5.252   0.425
 1872SOL    HW2 6273   1.004   5.200   0.575
 1873SOL     OW 6274   1.795   4.790   0.873
 1873SOL    HW1 6275   1.733   4.775   0.797
 1873SOL    HW2 6276   1.743   4.801   0.958
 1874SOL     OW 6277   1.227   5.274   1.506
 1874SOL    HW1 6278   1.233   5.197   1.570
 1874SOL    HW2 6279   1.175   5.248   1.426
 1875SOL     OW 6280   0.321   4.667   0.242
 1875SOL    HW1 6281   0.403   4.706   0.200
 1875SOL    HW2 6282   0.294   4.585   0.193
 1876SOL     OW 6283   1.458   4.459   0.728
 1876SOL    HW1 6284   1.453   4.394   0.803
 1876SOL    HW2 6285   1.538   4.518   0.741
 1877SOL     OW 6286   0.461   4.990   1.727
 1877SOL    HW1 6287   0.411   4.991   1.641
 1877SOL    HW2 6288   0.398   4.972   1.803
 1878SOL     OW 6289   1.111   5.500   0.237
 1878SOL    HW1 6290   1.051   5.438   0.287
 1878SOL    HW2 6291   1.142   5.456   0.152
 1879SOL     OW 6292   0.202   4.009   1.498
 1879SOL    HW1 6293   0.122   4.069   1.485
 1879SOL    HW2 6294   0.192   3.960   1.584
 1880SOL     OW 6295   1.632   5.101   0.081
 1880SOL    HW1 6296   1.600   5.195   0.071
 1880SOL    HW2 6297   1.556   5.038   0.069
 1881SOL     OW 6298   1.400   3.831   0.426
 1881SOL    HW1 6299   1.376   3.794   0.336
 1881SOL    HW2 6300   1.499   3.847   0.430
 1882SOL     OW 6301   0.382   4.424   0.480
 1882SOL    HW1 6302   0.427   4.334   0.477
 1882SOL    HW2 6303   0.288   4.413   0.513
 1883SOL     OW 6304   1.547   3.946   1.729
 1883SOL    HW1 6305   1.542   3.983   1.821
 1883SOL    HW2 6306   1.475   3.877   1.717
 1884SOL     OW 6307   0.614   3.846   0.117
 1884SOL    HW1 6308   0.712   3.824   0.124
 1884SOL    HW2 6309   0.583   3.829   0.024
 1885SOL     OW 6310   0.781   3.988   1.749
 1885SOL    HW1 6311   0.848   3.927   1.792
 1885SOL    HW2 6312   0.708   4.007   1.814
 1886SOL     OW 6313   1.351   4.314   1.433
 1886SOL    HW1 6314   1.379   4.271   1.518
 1886SOL    HW2 6315   1.376   4.410   1.434
 1887SOL     OW 6316   0.803   5.126   0.924
 1887SOL    HW1 6317   0.893   5.140   0.882
 1887SOL    HW2 6318   0.732   5.128   0.853
 1888SOL     OW 6319   0.922   4.227   0.899
 1888SOL    HW1 6320   0.897   4.218   0.803
 1888SOL    HW2 6321   0.970   4.145   0.930
 1889SOL     OW 6322   0.539   3.788   0.512
 1889SOL    HW1 6323   0.458   3.789   0.570
 1889SOL    HW2 6324   0.542   3.871   0.457
 1890SOL     OW 6325   1.434   4.912   0.041
 1890SOL    HW1 6326   1.466   4.836   0.098
 1890SOL    HW2 6327   1.342   4.939   0.071
 1891SOL     OW 6328   0.297   3.759   0.171
 1891SOL    HW1 6329   0.346   3.843   0.150
 1891SOL    HW2 6330   0.359   3.694   0.216
 1892SOL     OW 6331   0.935   3.960   0.480
 1892SOL    HW1 6332   0.887   4.001   0.402
 1892SOL    HW2 6333   1.034   3.958   0.461
 1893SOL     OW 6334   1.076   4.407   1.464
 1893SOL    HW1 6335   0.996   4.346   1.467
 1893SOL    HW2 6336   1.157   4.354   1.440
 1894SOL     OW 6337   1.227   5.294   0.793
 1894SOL    HW1 6338   1.248   5.368   0.728
 1894SOL    HW2 6339   1.295   5.294   0.866
 1895SOL     OW 6340   0.459   4.876   0.741
 1895SOL    HW1 6341   0.388   4.849   0.806
 1895SOL    HW2 6342   0.433   4.848   0.648
 1896SOL     OW 6343   1.032   4.273   0.016
 1896SOL    HW1 6344   0.991   4.355  -0.023
 1896SOL    HW2 6345   1.096   4.299   0.089
 1897SOL     OW 6346   0.078   4.280   1.386
 1897SOL    HW1 6347   0.170   4.279   1.345
 1897SOL    HW2 6348   0.072   4.354   1.453
 1898SOL     OW 6349   0.561   3.946   1.147
 1898SOL    HW1 6350   0.599   3.862   1.184
 1898SOL    HW2 6351   0.473   3.965   1.191
 1899SOL     OW 6352   0.866   4.178   0.642
 1899SOL    HW1 6353   0.834   4.250   0.580
 1899SOL    HW2 6354   0.890   4.097   0.589
 1900SOL     OW 6355   1.017   3.763   0.753
 1900SOL    HW1 6356   0.945   3.768   0.684
 1900SOL    HW2 6357   0.993   3.694   0.822
 1901SOL     OW 6358   1.429   4.897   0.867
 1901SOL    HW1 6359   1.374   4.813   0.860
 1901SOL    HW2 6360   1.455   4.926   0.775
 1902SOL     OW 6361   1.466   4.314   0.992
 1902SOL    HW1 6362   1.436   4.219   0.999
 1902SOL    HW2 6363   1.539   4.330   1.058
 1903SOL     OW 6364   1.857   4.557   0.377
 1903SOL    HW1 6365   1.899   4.493   0.441
 1903SOL    HW2 6366   1.819   4.506   0.299
 1904SOL     OW 6367   0.488   5.109   0.174
 1904SOL    HW1 6368   0.401   5.094   0.221
 1904SOL    HW2 6369   0.471   5.135   0.079
 1905SOL     OW 6370   1.664   5.004   0.657
 1905SOL    HW1 6371   1.763   5.012   0.671
 1905SOL    HW2 6372   1.619   5.088   0.688
 1906SOL     OW 6373   1.390   4.299   0.078
 1906SOL    HW1 6374   1.336   4.278   0.159
 1906SOL    HW2 6375   1.481   4.258   0.087
 1907SOL     OW 6376   0.527   3.980   0.328
 1907SOL    HW1 6377   0.554   3.921   0.253
 1907SOL    HW2 6378   0.527   4.075   0.297
 1908SOL     OW 6379   1.754   4.947   1.588
 1908SOL    HW1 6380   1.845   4.908   1.575
 1908SOL    HW2 6381   1.762   5.043   1.612
 1909SOL     OW 6382   1.064   5.071   1.340
 1909SOL    HW1 6383   0.984   5.048   1.395
 1909SOL    HW2 6384   1.147   5.045   1.389
 1910SOL     OW 6385   1.111   4.919   1.100
 1910SOL    HW1 6386   1.071   4.963   1.181
 1910SOL    HW2 6387   1.070   4.956   1.017
 1911SOL     OW 6388   1.638   4.823   1.079
 1911SOL    HW1 6389   1.643   4.904   1.138
 1911SOL    HW2 6390   1.552   4.825   1.028
 1912SOL     OW 6391   0.915   3.813   1.402
 1912SOL    HW1 6392   0.940   3.793   1.307
 1912SOL    HW2 6393   0.987   3.869   1.444
 1913SOL     OW 6394   0.980   4.840   1.719
 1913SOL    HW1 6395   0.881   4.846   1.729
 1913SOL    HW2 6396   1.003   4.760   1.663
 1914SOL     OW 6397   0.705   4.774   0.368
 1914SOL    HW1 6398   0.691   4.781   0.467
 1914SOL    HW2 6399   0.789   4.723   0.350
 1915SOL     OW 6400   0.410   4.537   1.251
 1915SOL    HW1 6401   0.496   4.549   1.301
 1915SOL    HW2 6402   0.368   4.450   1.278
 1916SOL     OW 6403   1.274   4.110   1.262
 1916SOL    HW1 6404   1.295   4.184   1.326
 1916SOL    HW2 6405   1.185   4.127   1.219
 1917SOL     OW 6406   0.064   5.288   1.331
 1917SOL    HW1 6407   0.018   5.370   1.297
 1917SOL    HW2 6408   0.162   5.307   1.340
 1918SOL     OW 6409   0.367   4.824   0.501
 1918SOL    HW1 6410   0.360   4.907   0.445
 1918SOL    HW2 6411   0.371   4.744   0.441
 1919SOL     OW 6412   0.566   4.261   0.865
 1919SOL    HW1 6413   0.578   4.327   0.791
 1919SOL    HW2 6414   0.612   4.295   0.948
 1920SOL     OW 6415   1.252   5.072   0.388
 1920SOL    HW1 6416   1.302   5.149   0.428
 1920SOL    HW2 6417   1.157   5.074   0.420
 1921SOL     OW 6418   1.272   5.169   1.142
 1921SOL    HW1 6419   1.319   5.182   1.229
 1921SOL    HW2 6420   1.206   5.095   1.151
 1922SOL     OW 6421   1.582   4.363   0.472
 1922SOL    HW1 6422   1.551   4.424   0.545
 1922SOL    HW2 6423   1.632   4.415   0.403
 1923SOL     OW 6424   0.354   5.234   1.329
 1923SOL    HW1 6425   0.333   5.190   1.242
 1923SOL    HW2 6426   0.451   5.260   1.332
 1924SOL     OW 6427   0.402   4.475   1.598
 1924SOL    HW1 6428   0.470   4.530   1.551
 1924SOL    HW2 6429   0.442   4.387   1.625
 1925SOL     OW 6430   1.587   4.503   1.670
 1925SOL    HW1 6431   1.495   4.541   1.665
 1925SOL    HW2 6432   1.647   4.550   1.605
 1926SOL     OW 6433   1.013   3.829   1.770
 1926SOL    HW1 6434   1.019   3.914   1.718
 1926SOL    HW2 6435   1.045   3.753   1.713
 1927SOL     OW 6436   0.504   3.774   1.740
 1927SOL    HW1 6437   0.462   3.717   1.670
 1927SOL    HW2 6438   0.438   3.843   1.772
 1928SOL     OW 6439   0.573   4.594   1.029
 1928SOL    HW1 6440   0.617   4.683   1.020
 1928SOL    HW2 6441   0.510   4.594   1.106
 1929SOL     OW 6442   1.360   4.586   1.045
 1929SOL    HW1 6443   1.285   4.586   0.979
 1929SOL    HW2 6444   1.397   4.494   1.054
 1930SOL     OW 6445   1.209   4.249   0.275
 1930SOL    HW1 6446   1.222   4.165   0.329
 1930SOL    HW2 6447   1.180   4.323   0.335
 1931SOL     OW 6448   0.307   3.937   1.231
 1931SOL    HW1 6449   0.284   3.974   1.321
 1931SOL    HW2 6450   0.277   3.842   1.225
 1932SOL     OW 6451   0.037   5.034   1.282
 1932SOL    HW1 6452   0.090   4.985   1.350
 1932SOL    HW2 6453   0.059   5.132   1.287
 1933SOL     OW 6454   0.732   4.358   1.064
 1933SOL    HW1 6455   0.791   4.332   0.988
 1933SOL    HW2 6456   0.704   4.454   1.053
 1934SOL     OW 6457   1.728   4.659   1.854
 1934SOL    HW1 6458   1.682   4.652   1.765
 1934SOL    HW2 6459   1.666   4.703   1.920
 1935SOL     OW 6460   0.307   3.787   0.618
 1935SOL    HW1 6461   0.296   3.881   0.651
 1935SOL    HW2 6462   0.302   3.724   0.695
 1936SOL     OW 6463   1.622   4.091   0.374
 1936SOL    HW1 6464   1.624   4.015   0.438
 1936SOL    HW2 6465   1.574   4.168   0.414
 1937SOL     OW 6466   1.023   4.490   0.966
 1937SOL    HW1 6467   1.038   4.511   1.062
 1937SOL    HW2 6468   0.993   4.395   0.957
 1938SOL     OW 6469   1.859   5.242   1.605
 1938SOL    HW1 6470   1.873   5.269   1.510
 1938SOL    HW2 6471   1.942   5.264   1.658
 1939SOL     OW 6472   0.350   4.622   1.804
 1939SOL    HW1 6473   0.426   4.666   1.852
 1939SOL    HW2 6474   0.385   4.575   1.722
 1940SOL     OW 6475   1.540   3.998   0.125
 1940SOL    HW1 6476   1.479   3.923   0.148
 1940SOL    HW2 6477   1.562   4.050   0.208
 1941SOL     OW 6478   1.303   4.562   0.042
 1941SOL    HW1 6479   1.337   4.469   0.057
 1941SOL    HW2 6480   1.321   4.589  -0.053
 1942SOL     OW 6481   1.068   5.057   0.849
 1942SOL    HW1 6482   1.075   4.973   0.794
 1942SOL    HW2 6483   1.130   5.126   0.813
 1943SOL     OW 6484   0.319   4.534   0.949
 1943SOL    HW1 6485   0.412   4.570   0.954
 1943SOL    HW2 6486   0.313   4.449   1.001
 1944SOL     OW 6487   0.339   4.233   1.006
 1944SOL    HW1 6488   0.287   4.150   0.989
 1944SOL    HW2 6489   0.416   4.238   0.942
 1945SOL     OW 6490   1.138   4.104   1.678
 1945SOL    HW1 6491   1.093   4.167   1.742
 1945SOL    HW2 6492   1.231   4.135   1.661
 1946SOL     OW 6493   1.160   3.931   1.477
 1946SOL    HW1 6494   1.160   3.995   1.554
 1946SOL    HW2 6495   1.188   3.979   1.394
 1947SOL     OW 6496   0.008   5.050   0.200
 1947SOL    HW1 6497  -0.085   5.071   0.169
 1947SOL    HW2 6498   0.018   4.951   0.213
 1948SOL     OW 6499   1.002   4.520   1.238
 1948SOL    HW1 6500   1.043   4.488   1.324
 1948SOL    HW2 6501   0.906   4.493   1.235
 1949SOL     OW 6502   0.040   4.268   1.114
 1949SOL    HW1 6503   0.125   4.235   1.073
 1949SOL    HW2 6504   0.053   4.283   1.212
 1950SOL     OW 6505   0.189   4.244   1.722
 1950SOL    HW1 6506   0.248   4.204   1.652
 1950SOL    HW2 6507   0.131   4.315   1.681
 1951SOL     OW 6508   1.369   4.674   1.660
 1951SOL    HW1 6509   1.408   4.763   1.680
 1951SOL    HW2 6510   1.379   4.654   1.563
 1952SOL     OW 6511   0.815   4.296   0.325
 1952SOL    HW1 6512   0.822   4.207   0.279
 1952SOL    HW2 6513   0.721   4.330   0.317
 1953SOL     OW 6514   1.657   4.328   1.206
 1953SOL    HW1 6515   1.619   4.259   1.268
 1953SOL    HW2 6516   1.739   4.292   1.162
 1954SOL     OW 6517   0.252   5.288   1.744
 1954SOL    HW1 6518   0.222   5.345   1.820
 1954SOL    HW2 6519   0.245   5.191   1.770
 1955SOL     OW 6520   0.671   4.188   1.269
 1955SOL    HW1 6521   0.637   4.099   1.239
 1955SOL    HW2 6522   0.697   4.242   1.189
 1956SOL     OW 6523   0.473   4.224   0.191
 1956SOL    HW1 6524   0.534   4.304   0.195
 1956SOL    HW2 6525   0.378   4.255   0.198
 1957SOL     OW 6526   0.159   4.861   1.466
 1957SOL    HW1 6527   0.181   4.800   1.542
 1957SOL    HW2 6528   0.169   4.812   1.380
 1958SOL     OW 6529   1.347   4.783   1.234
 1958SOL    HW1 6530   1.371   4.720   1.160
 1958SOL    HW2 6531   1.257   4.823   1.216
 1959SOL     OW 6532   1.302   4.579   0.309
 1959SOL    HW1 6533   1.216   4.548   0.351
 1959SOL    HW2 6534   1.298   4.565   0.210
 1960SOL     OW 6535   0.083   4.982   1.022
 1960SOL    HW1 6536   0.078   4.981   1.122
 1960SOL    HW2 6537   0.000   4.941   0.984
 1961SOL     OW 6538   0.688   5.386   1.716
 1961SOL    HW1 6539   0.632   5.467   1.725
 1961SOL    HW2 6540   0.740   5.390   1.630
 1962SOL     OW 6541   0.903   3.810   0.133
 1962SOL    HW1 6542   0.954   3.811   0.047
 1962SOL    HW2 6543   0.959   3.768   0.204
 1963SOL     OW 6544   1.726   3.859   0.523
 1963SOL    HW1 6545   1.799   3.842   0.456
 1963SOL    HW2 6546   1.695   3.772   0.561
 1964SOL     OW 6547   1.280   4.651   0.672
 1964SOL    HW1 6548   1.340   4.570   0.674
 1964SOL    HW2 6549   1.320   4.720   0.612
 1965SOL     OW 6550   0.830   4.997   1.422
 1965SOL    HW1 6551   0.825   5.030   1.517
 1965SOL    HW2 6552   0.744   5.016   1.376
 1966SOL     OW 6553   1.841   3.899   0.963
 1966SOL    HW1 6554   1.880   3.814   0.927
 1966SOL    HW2 6555   1.743   3.901   0.944
 1967SOL     OW 6556   0.263   4.050   0.720
 1967SOL    HW1 6557   0.184   4.101   0.686
 1967SOL    HW2 6558   0.254   4.035   0.818
 1968SOL     OW 6559   1.194   5.336   0.031
 1968SOL    HW1 6560   1.200   5.243   0.068
 1968SOL    HW2 6561   1.135   5.336  -0.049
 1969SOL     OW 6562   0.822   4.726   1.372
 1969SOL    HW1 6563   0.862   4.725   1.280
 1969SOL    HW2 6564   0.832   4.818   1.412
 1970SOL     OW 6565   0.916   4.634   0.291
 1970SOL    HW1 6566   0.979   4.672   0.223
 1970SOL    HW2 6567   0.956   4.551   0.330
 1971SOL     OW 6568   0.372   5.012   1.490
 1971SOL    HW1 6569   0.359   5.105   1.456
 1971SOL    HW2 6570   0.288   4.960   1.477
 1972SOL     OW 6571   1.614   5.016   1.289
 1972SOL    HW1 6572   1.674   5.019   1.369
 1972SOL    HW2 6573   1.539   5.080   1.302
 1973SOL     OW 6574   1.039   4.822   0.696
 1973SOL    HW1 6575   0.969   4.775   0.750
 1973SOL    HW2 6576   1.098   4.754   0.653
 1974SOL     OW 6577   1.014   3.960   0.971
 1974SOL    HW1 6578   1.006   3.924   0.878
 1974SOL    HW2 6579   1.012   3.884   1.036
 1975SOL     OW 6580   1.709   4.109   1.381
 1975SOL    HW1 6581   1.782   4.178   1.385
 1975SOL    HW2 6582   1.737   4.034   1.322
 1976SOL     OW 6583   0.255   5.072   0.290
 1976SOL    HW1 6584   0.159   5.073   0.263
 1976SOL    HW2 6585   0.267   5.125   0.374
 1977SOL     OW 6586   0.105   4.737   1.726
 1977SOL    HW1 6587   0.028   4.704   1.780
 1977SOL    HW2 6588   0.190   4.707   1.768
 1978SOL     OW 6589   0.672   3.927   1.489
 1978SOL    HW1 6590   0.762   3.911   1.449
 1978SOL    HW2 6591   0.680   3.932   1.588
 1979SOL     OW 6592   0.075   4.069   0.033
 1979SOL    HW1 6593  -0.017   4.041   0.004
 1979SOL    HW2 6594   0.106   4.146  -0.023
 1980SOL     OW 6595   1.440   4.580   1.398
 1980SOL    HW1 6596   1.383   4.632   1.335
 1980SOL    HW2 6597   1.536   4.592   1.374
 1981SOL     OW 6598   0.072   3.890   0.318
 1981SOL    HW1 6599   0.055   3.973   0.264
 1981SOL    HW2 6600   0.162   3.853   0.296
 1982SOL     OW 6601   1.183   5.059   0.119
 1982SOL    HW1 6602   1.084   5.048   0.121
 1982SOL    HW2 6603   1.217   5.074   0.212
 1983SOL     OW 6604   0.613   4.566   1.431
 1983SOL    HW1 6605   0.669   4.647   1.414
 1983SOL    HW2 6606   0.672   4.486   1.434
 1984SOL     OW 6607   0.716   4.289   1.708
 1984SOL    HW1 6608   0.735   4.354   1.782
 1984SOL    HW2 6609   0.776   4.209   1.717
 1985SOL     OW 6610   1.450   4.944   1.633
 1985SOL    HW1 6611   1.441   4.934   1.732
 1985SOL    HW2 6612   1.546   4.937   1.607
 1986SOL     OW 6613   1.674   4.607   1.254
 1986SOL    HW1 6614   1.647   4.518   1.217
 1986SOL    HW2 6615   1.675   4.675   1.181
 1987SOL     OW 6616   1.225   4.049   0.449
 1987SOL    HW1 6617   1.290   3.975   0.438
 1987SOL    HW2 6618   1.245   4.099   0.533
 1988SOL     OW 6619   0.594   4.469   0.652
 1988SOL    HW1 6620   0.644   4.554   0.633
 1988SOL    HW2 6621   0.506   4.471   0.604
 1989SOL     OW 6622   1.777   4.066   1.642
 1989SOL    HW1 6623   1.760   4.097   1.548
 1989SOL    HW2 6624   1.693   4.029   1.680
 1990SOL     OW 6625   1.730   4.658   1.517
 1990SOL    HW1 6626   1.768   4.749   1.532
 1990SOL    HW2 6627   1.722   4.641   1.418
 1991SOL     OW 6628   0.859   5.098   0.016
 1991SOL    HW1 6629   0.813   5.113   0.104
 1991SOL    HW2 6630   0.903   5.183  -0.014
 1992SOL     OW 6631   0.859   4.680   0.861
 1992SOL    HW1 6632   0.913   4.611   0.909
 1992SOL    HW2 6633   0.827   4.749   0.927
 1993SOL     OW 6634   1.083   4.708   0.087
 1993SOL    HW1 6635   1.060   4.761   0.005
 1993SOL    HW2 6636   1.164   4.652   0.068
 1994SOL     OW 6637   0.221   5.038   1.844
 1994SOL    HW1 6638   0.156   4.965   1.823
 1994SOL    HW2 6639   0.225   5.052   1.942
 1995SOL     OW 6640   0.079   4.964   0.653
 1995SOL    HW1 6641   0.078   4.917   0.741
 1995SOL    HW2 6642   0.161   4.936   0.602
 1996SOL     OW 6643   0.672   5.115   1.624
 1996SOL    HW1 6644   0.594   5.065   1.662
 1996SOL    HW2 6645   0.669   5.210   1.655
 1997SOL     OW 6646   1.824   3.916   1.227
 1997SOL    HW1 6647   1.820   3.826   1.271
 1997SOL    HW2 6648   1.827   3.905   1.128
 1998SOL     OW 6649   0.428   4.148   0.520
 1998SOL    HW1 6650   0.458   4.076   0.458
 1998SOL    HW2 6651   0.389   4.108   0.603
 1999SOL     OW 6652   1.705   5.211   1.104
 1999SOL    HW1 6653   1.612   5.186   1.077
 1999SOL    HW2 6654   1.731   5.161   1.186
 2000SOL     OW 6655   0.317   4.271   1.280
 2000SOL    HW1 6656   0.355   4.212   1.352
 2000SOL    HW2 6657   0.357   4.245   1.192
 2001SOL     OW 6658   1.424   3.938   1.112
 2001SOL    HW1 6659   1.476   3.873   1.167
 2001SOL    HW2 6660   1.375   4.001   1.173
 2002SOL     OW 6661   1.001   3.758   1.154
 2002SOL    HW1 6662   0.938   3.686   1.123
 2002SOL    HW2 6663   1.094   3.722   1.154
 2003SOL     OW 6664   0.770   5.054   0.301
 2003SOL    HW1 6665   0.724   4.967   0.318
 2003SOL    HW2 6666   0.861   5.051   0.342
 2004SOL     OW 6667   0.618   5.291   1.284
 2004SOL    HW1 6668   0.613   5.373   1.341
 2004SOL    HW2 6669   0.707   5.288   1.239
 2005SOL     OW 6670   1.352   3.776   0.168
 2005SOL    HW1 6671   1.387   3.735   0.084
 2005SOL    HW2 6672   1.262   3.738   0.188
 2006SOL     OW 6673   1.300   4.177   0.691
 2006SOL    HW1 6674   1.241   4.257   0.695
 2006SOL    HW2 6675   1.315   4.142   0.784
 2007SOL     OW 6676   1.593   3.945   0.882
 2007SOL    HW1 6677   1.509   3.944   0.936
 2007SOL    HW2 6678   1.595   4.028   0.826
 2008SOL     OW 6679   0.039   4.801   0.300
 2008SOL    HW1 6680   0.138   4.790   0.291
 2008SOL    HW2 6681  -0.001   4.715   0.332
 2009SOL     OW 6682   0.230   4.352   1.975
 2009SOL    HW1 6683   0.137   4.350   2.012
 2009SOL    HW2 6684   0.231   4.313   1.883
 2010SOL     OW 6685   0.225   3.999   2.858
 2010SOL    HW1 6686   0.260   3.982   2.950
 2010SOL    HW2 6687   0.137   3.954   2.846
 2011SOL     OW 6688   0.019   4.092   2.509
 2011SOL    HW1 6689  -0.063   4.135   2.548
 2011SOL    HW2 6690  -0.009   4.019   2.446
 2012SOL     OW 6691   0.569   4.999   3.027
 2012SOL    HW1 6692   0.476   4.992   2.990
 2012SOL    HW2 6693   0.580   5.088   3.071
 2013SOL     OW 6694   1.555   5.235   2.565
 2013SOL    HW1 6695   1.498   5.219   2.646
 2013SOL    HW2 6696   1.496   5.245   2.485
 2014SOL     OW 6697   1.135   4.427   2.579
 2014SOL    HW1 6698   1.192   4.505   2.554
 2014SOL    HW2 6699   1.075   4.453   2.655
 2015SOL     OW 6700   1.755   4.331   2.093
 2015SOL    HW1 6701   1.743   4.318   1.994
 2015SOL    HW2 6702   1.725   4.250   2.142
 2016SOL     OW 6703   0.768   4.868   2.885
 2016SOL    HW1 6704   0.690   4.885   2.945
 2016SOL    HW2 6705   0.802   4.955   2.849
 2017SOL     OW 6706   0.850   4.522   3.685
 2017SOL    HW1 6707   0.846   4.598   3.750
 2017SOL    HW2 6708   0.872   4.558   3.594
 2018SOL     OW 6709   0.685   4.736   2.527
 2018SOL    HW1 6710   0.754   4.720   2.597
 2018SOL    HW2 6711   0.612   4.793   2.565
 2019SOL     OW 6712   0.686   4.885   3.665
 2019SOL    HW1 6713   0.746   4.964   3.679
 2019SOL    HW2 6714   0.600   4.916   3.624
 2020SOL     OW 6715   0.335   5.159   2.923
 2020SOL    HW1 6716   0.257   5.128   2.870
 2020SOL    HW2 6717   0.393   5.217   2.866
 2021SOL     OW 6718   1.460   5.229   3.201
 2021SOL    HW1 6719   1.484   5.323   3.227
 2021SOL    HW2 6720   1.444   5.175   3.283
 2022SOL     OW 6721   0.438   4.116   3.361
 2022SOL    HW1 6722   0.520   4.060   3.370
 2022SOL    HW2 6723   0.357   4.058   3.365
 2023SOL     OW 6724   1.603   4.171   2.599
 2023SOL    HW1 6725   1.529   4.217   2.549
 2023SOL    HW2 6726   1.654   4.239   2.652
 2024SOL     OW 6727   1.127   5.065   3.552
 2024SOL    HW1 6728   1.174   5.065   3.640
 2024SOL    HW2 6729   1.079   4.978   3.541
 2025SOL     OW 6730   0.230   5.158   2.400
 2025SOL    HW1 6731   0.204   5.254   2.400
 2025SOL    HW2 6732   0.159   5.104   2.445
 2026SOL     OW 6733   0.240   4.815   2.748
 2026SOL    HW1 6734   0.254   4.731   2.800
 2026SOL    HW2 6735   0.185   4.879   2.803
 2027SOL     OW 6736   0.606   4.688   1.985
 2027SOL    HW1 6737   0.613   4.772   1.931
 2027SOL    HW2 6738   0.652   4.701   2.073
 2028SOL     OW 6739   1.594   3.838   3.342
 2028SOL    HW1 6740   1.576   3.905   3.270
 2028SOL    HW2 6741   1.591   3.884   3.431
 2029SOL     OW 6742   0.122   4.367   2.425
 2029SOL    HW1 6743   0.077   4.279   2.442
 2029SOL    HW2 6744   0.121   4.421   2.509
 2030SOL     OW 6745   0.027   5.320   1.979
 2030SOL    HW1 6746   0.008   5.224   2.000
 2030SOL    HW2 6747  -0.006   5.378   2.054
 2031SOL     OW 6748   1.689   4.646   2.474
 2031SOL    HW1 6749   1.784   4.617   2.482
 2031SOL    HW2 6750   1.681   4.711   2.399
 2032SOL     OW 6751   1.641   4.832   2.294
 2032SOL    HW1 6752   1.727   4.834   2.242
 2032SOL    HW2 6753   1.655   4.879   2.382
 2033SOL     OW 6754   0.113   4.461   3.459
 2033SOL    HW1 6755   0.201   4.448   3.504
 2033SOL    HW2 6756   0.100   4.558   3.437
 2034SOL     OW 6757   0.613   5.089   2.588
 2034SOL    HW1 6758   0.564   5.002   2.597
 2034SOL    HW2 6759   0.590   5.132   2.501
 2035SOL     OW 6760   1.293   4.952   3.285
 2035SOL    HW1 6761   1.330   4.879   3.227
 2035SOL    HW2 6762   1.345   4.957   3.370
 2036SOL     OW 6763   0.809   3.728   2.364
 2036SOL    HW1 6764   0.849   3.819   2.355
 2036SOL    HW2 6765   0.709   3.736   2.370
 2037SOL     OW 6766   0.197   4.700   3.126
 2037SOL    HW1 6767   0.286   4.655   3.112
 2037SOL    HW2 6768   0.124   4.635   3.107
 2038SOL     OW 6769   1.525   4.723   2.052
 2038SOL    HW1 6770   1.462   4.647   2.065
 2038SOL    HW2 6771   1.573   4.741   2.138
 2039SOL     OW 6772   0.317   3.975   3.663
 2039SOL    HW1 6773   0.388   4.046   3.669
 2039SOL    HW2 6774   0.229   4.014   3.691
 2040SOL     OW 6775   1.466   5.141   2.815
 2040SOL    HW1 6776   1.407   5.147   2.895
 2040SOL    HW2 6777   1.451   5.053   2.769
 2041SOL     OW 6778   0.598   4.453   2.132
 2041SOL    HW1 6779   0.622   4.522   2.064
 2041SOL    HW2 6780   0.520   4.486   2.186
 2042SOL     OW 6781   1.281   4.069   2.806
 2042SOL    HW1 6782   1.195   4.019   2.793
 2042SOL    HW2 6783   1.343   4.015   2.862
 2043SOL     OW 6784   0.807   4.329   3.327
 2043SOL    HW1 6785   0.760   4.326   3.416
 2043SOL    HW2 6786   0.756   4.274   3.261
 2044SOL     OW 6787   1.394   4.193   3.536
 2044SOL    HW1 6788   1.374   4.236   3.624
 2044SOL    HW2 6789   1.472   4.131   3.545
 2045SOL     OW 6790   0.973   4.614   3.434
 2045SOL    HW1 6791   1.019   4.530   3.405
 2045SOL    HW2 6792   0.917   4.648   3.359
 2046SOL     OW 6793   0.991   4.134   3.104
 2046SOL    HW1 6794   0.914   4.168   3.158
 2046SOL    HW2 6795   0.957   4.083   3.025
 2047SOL     OW 6796   1.041   4.425   2.291
 2047SOL    HW1 6797   1.067   4.421   2.387
 2047SOL    HW2 6798   0.956   4.374   2.277
 2048SOL     OW 6799   0.076   4.535   2.651
 2048SOL    HW1 6800   0.175   4.523   2.660
 2048SOL    HW2 6801   0.052   4.630   2.672
 2049SOL     OW 6802   0.865   4.072   2.057
 2049SOL    HW1 6803   0.924   4.135   2.008
 2049SOL    HW2 6804   0.884   3.978   2.028
 2050SOL     OW 6805   1.719   4.309   3.693
 2050SOL    HW1 6806   1.693   4.398   3.657
 2050SOL    HW2 6807   1.717   4.241   3.620
 2051SOL     OW 6808   1.362   4.868   2.407
 2051SOL    HW1 6809   1.445   4.839   2.359
 2051SOL    HW2 6810   1.313   4.935   2.351
 2052SOL     OW 6811   0.550   3.920   2.747
 2052SOL    HW1 6812   0.545   3.915   2.847
 2052SOL    HW2 6813   0.552   4.016   2.718
 2053SOL     OW 6814   1.008   5.180   2.339
 2053SOL    HW1 6815   0.962   5.252   2.287
 2053SOL    HW2 6816   1.004   5.200   2.437
 2054SOL     OW 6817   1.795   4.790   2.735
 2054SOL    HW1 6818   1.733   4.775   2.659
 2054SOL    HW2 6819   1.743   4.801   2.820
 2055SOL     OW 6820   1.227   5.274   3.368
 2055SOL    HW1 6821   1.233   5.197   3.432
 2055SOL    HW2 6822   1.175   5.248   3.288
 2056SOL     OW 6823   0.321   4.667   2.104
 2056SOL    HW1 6824   0.403   4.706   2.062
 2056SOL    HW2 6825   0.294   4.585   2.055
 2057SOL     OW 6826   1.458   4.459   2.590
 2057SOL    HW1 6827   1.453   4.394   2.665
 2057SOL    HW2 6828   1.538   4.518   2.603
 2058SOL     OW 6829   0.461   4.990   3.589
 2058SOL    HW1 6830   0.411   4.991   3.503
 2058SOL    HW2 6831   0.398   4.972   3.665
 2059SOL     OW 6832   1.111   5.500   2.099
 2059SOL    HW1 6833   1.051   5.438   2.149
 2059SOL    HW2 6834   1.142   5.456   2.014
 2060SOL     OW 6835   0.202   4.009   3.360
 2060SOL    HW1 6836   0.122   4.069   3.347
 2060SOL    HW2 6837   0.192   3.960   3.446
 2061SOL     OW 6838   1.632   5.101   1.943
 2061SOL    HW1 6839   1.600   5.195   1.933
 2061SOL    HW2 6840   1.556   5.038   1.931
 2062SOL     OW 6841   1.400   3.831   2.288
 2062SOL    HW1 6842   1.376   3.794   2.198
 2062SOL    HW2 6843   1.499   3.847   2.292
 2063SOL     OW 6844   0.382   4.424   2.342
 2063SOL    HW1 6845   0.427   4.334   2.339
 2063SOL    HW2 6846   0.288   4.413   2.375
 2064SOL     OW 6847   1.547   3.946   3.591
 2064SOL    HW1 6848   1.542   3.983   3.683
 2064SOL    HW2 6849   1.475   3.877   3.579
 2065SOL     OW 6850   0.614   3.846   1.979
 2065SOL    HW1 6851   0.712   3.824   1.986
 2065SOL    HW2 6852   0.583   3.829   1.886
 2066SOL     OW 6853   0.781   3.988   3.611
 2066SOL    HW1 6854   0.848   3.927   3.654
 2066SOL    HW2 6855   0.708   4.007   3.676
 2067SOL     OW 6856   1.351   4.314   3.295
 2067SOL    HW1 6857   1.379   4.271   3.380
 2067SOL    HW2 6858   1.376   4.410   3.296
 2068SOL     OW 6859   0.803   5.126   2.786
 2068SOL    HW1 6860   0.893   5.140   2.744
 2068SOL    HW2 6861   0.732   5.128   2.715
 2069SOL     OW 6862   0.922   4.227   2.761
 2069SOL    HW1 6863   0.897   4.218   2.665
 2069SOL    HW2 6864   0.970   4.145   2.792
 2070SOL     OW 6865   0.539   3.788   2.374
 2070SOL    HW1 6866   0.458   3.789   2.432
 2070SOL    HW2 6867   0.542   3.871   2.319
 2071SOL     OW 6868   1.434   4.912   1.903
 2071SOL    HW1 6869   1.466   4.836   1.960
 2071SOL    HW2 6870   1.342   4.939   1.933
 2072SOL     OW 6871   0.297   3.759   2.033
 2072SOL    HW1 6872   0.346   3.843   2.012
 2072SOL    HW2 6873   0.359   3.694   2.078
 2073SOL     OW 6874   0.935   3.960   2.342
 2073SOL    HW1 6875   0.887   4.001   2.264
 2073SOL    HW2 6876   1.034   3.958   2.323
 2074SOL     OW 6877   1.076   4.407   3.326
 2074SOL    HW1 6878   0.996   4.346   3.329
 2074SOL    HW2 6879   1.157   4.354   3.302
 2075SOL     OW 6880   1.227   5.294   2.655
 2075SOL    HW1 6881   1.248   5.368   2.590
 2075SOL    HW2 6882   1.295   5.294   2.728
 2076SOL     OW 6883   0.459   4.876   2.603
 2076SOL    HW1 6884   0.388   4.849   2.668
 2076SOL    HW2 6885   0.433   4.848   2.510
 2077SOL     OW 6886   1.032   4.273   1.878
 2077SOL    HW1 6887   0.991   4.355   1.839
 2077SOL    HW2 6888   1.096   4.299   1.951
 2078SOL     OW 6889   0.078   4.280   3.248
 2078SOL    HW1 6890   0.170   4.279   3.207
 2078SOL    HW2 6891   0.072   4.354   3.315
 2079SOL     OW 6892   0.561   3.946   3.009
 2079SOL    HW1 6893   0.599   3.862   3.046
 2079SOL    HW2 6894   0.473   3.965   3.053
 2080SOL     OW 6895   0.866   4.178   2.504
 2080SOL    HW1 6896   0.834   4.250   2.442
 2080SOL    HW2 6897   0.890   4.097   2.451
 2081SOL     OW 6898   1.017   3.763   2.615
 2081SOL    HW1 6899   0.945   3.768   2.546
 2081SOL    HW2 6900   0.993   3.694   2.684
 2082SOL     OW 6901   1.429   4.897   2.729
 2082SOL    HW1 6902   1.374   4.813   2.722
 2082SOL    HW2 6903   1.455   4.926   2.637
 2083SOL     OW 6904   1.466   4.314   2.854
 2083SOL    HW1 6905   1.436   4.219   2.861
 2083SOL    HW2 6906   1.539   4.330   2.920
 2084SOL     OW 6907   1.857   4.557   2.239
 2084SOL    HW1 6908   1.899   4.493   2.303
 2084SOL    HW2 6909   1.819   4.506   2.161
 2085SOL     OW 6910   0.488   5.109   2.036
 2085SOL    HW1 6911   0.401   5.094   2.083
 2085SOL    HW2 6912   0.471   5.135   1.941
 2086SOL     OW 6913   1.664   5.004   2.519
 2086SOL    HW1 6914   1.763   5.012   2.533
 2086SOL    HW2 6915   1.619   5.088   2.550
 2087SOL     OW 6916   1.390   4.299   1.940
 2087SOL    HW1 6917   1.336   4.278   2.021
 2087SOL    HW2 6918   1.481   4.258   1.949
 2088SOL     OW 6919   0.527   3.980   2.190
 2088SOL    HW1 6920   0.554   3.921   2.115
 2088SOL    HW2 6921   0.527   4.075   2.159
 2089SOL     OW 6922   1.754   4.947   3.450
 2089SOL    HW1 6923   1.845   4.908   3.437
 2089SOL    HW2 6924   1.762   5.043   3.474
 2090SOL     OW 6925   1.064   5.071   3.202
 2090SOL    HW1 6926   0.984   5.048   3.257
 2090SOL    HW2 6927   1.147   5.045   3.251
 2091SOL     OW 6928   1.111   4.919   2.962
 2091SOL    HW1 6929   1.071   4.963   3.043
 2091SOL    HW2 6930   1.070   4.956   2.879
 2092SOL     OW 6931   1.638   4.823   2.941
 2092SOL    HW1 6932   1.643   4.904   3.000
 2092SOL    HW2 6933   1.552   4.825   2.890
 2093SOL     OW 6934   0.915   3.813   3.264
 2093SOL    HW1 6935   0.940   3.793   3.169
 2093SOL    HW2 6936   0.987   3.869   3.306
 2094SOL     OW 6937   0.980   4.840   3.581
 2094SOL    HW1 6938   0.881   4.846   3.591
 2094SOL    HW2 6939   1.003   4.760   3.525
 2095SOL     OW 6940   0.705   4.774   2.230
 2095SOL    HW1 6941   0.691   4.781   2.329
 2095SOL    HW2 6942   0.789   4.723   2.212
 2096SOL     OW 6943   0.410   4.537   3.113
 2096SOL    HW1 6944   0.496   4.549   3.163
 2096SOL    HW2 6945   0.368   4.450   3.140
 2097SOL     OW 6946   1.274   4.110   3.124
 2097SOL    HW1 6947   1.295   4.184   3.188
 2097SOL    HW2 6948   1.185   4.127   3.081
 2098SOL     OW 6949   0.064   5.288   3.193
 2098SOL    HW1 6950   0.018   5.370   3.159
 2098SOL    HW2 6951   0.162   5.307   3.202
 2099SOL     OW 6952   0.367   4.824   2.363
 2099SOL    HW1 6953   0.360   4.907   2.307
 2099SOL    HW2 6954   0.371   4.744   2.303
 2100SOL     OW 6955   0.566   4.261   2.727
 2100SOL    HW1 6956   0.578   4.327   2.653
 2100SOL    HW2 6957   0.612   4.295   2.810
 2101SOL     OW 6958   1.252   5.072   2.250
 2101SOL    HW1 6959   1.302   5.149   2.290
 2101SOL    HW2 6960   1.157   5.074   2.282
 2102SOL     OW 6961   1.272   5.169   3.004
 2102SOL    HW1 6962   1.319   5.182   3.091
 2102SOL    HW2 6963   1.206   5.095   3.013
 2103SOL     OW 6964   1.582   4.363   2.334
 2103SOL    HW1 6965   1.551   4.424   2.407
 2103SOL    HW2 6966   1.632   4.415   2.265
 2104SOL     OW 6967   0.354   5.234   3.191
 2104SOL    HW1 6968   0.333   5.190   3.104
 2104SOL    HW2 6969   0.451   5.260   3.194
 2105SOL     OW 6970   0.402   4.475   3.460
 2105SOL    HW1 6971   0.470   4.530   3.413
 2105SOL    HW2 6972   0.442   4.387   3.487
 2106SOL     OW 6973   1.587   4.503   3.532
 2106SOL    HW1 6974   1.495   4.541   3.527
 2106SOL    HW2 6975   1.647   4.550   3.467
 2107SOL     OW 6976   1.013   3.829   3.632
 2107SOL    HW1 6977   1.019   3.914   3.580
 2107SOL    HW2 6978   1.045   3.753   3.575
 2108SOL     OW 6979   0.504   3.774   3.602
 2108SOL    HW1 6980   0.462   3.717   3.532
 2108SOL    HW2 6981   0.438   3.843   3.634
 2109SOL     OW 6982   0.573   4.594   2.891
 2109SOL    HW1 6983   0.617   4.683   2.882
 2109SOL    HW2 6984   0.510   4.594   2.968
 2110SOL     OW 6985   1.360   4.586   2.907
 2110SOL    HW1 6986   1.285   4.586   2.841
 2110SOL    HW2 6987   1.397   4.494   2.916
 2111SOL     OW 6988   1.209   4.249   2.137
 2111SOL    HW1 6989   1.222   4.165   2.191
 2111SOL    HW2 6990   1.180   4.323   2.197
 2112SOL     OW 6991   0.307   3.937   3.093
 2112SOL    HW1 6992   0.284   3.974   3.183
 2112SOL    HW2 6993   0.277   3.842   3.087
 2113SOL     OW 6994   0.037   5.034   3.144
 2113SOL    HW1 6995   0.090   4.985   3.212
 2113SOL    HW2 6996   0.059   5.132   3.149
 2114SOL     OW 6997   0.732   4.358   2.926
 2114SOL    HW1 6998   0.791   4.332   2.850
 2114SOL    HW2 6999   0.704   4.454   2.915
 2115SOL     OW 7000   1.728   4.659   3.716
 2115SOL    HW1 7001   1.682   4.652   3.627
 2115SOL    HW2 7002   1.666   4.703   3.782
 2116SOL     OW 7003   0.307   3.787   2.480
 2116SOL    HW1 7004   0.296   3.881   2.513
 2116SOL    HW2 7005   0.302   3.724   2.557
 2117SOL     OW 7006   1.622   4.091   2.236
 2117SOL    HW1 7007   1.624   4.015   2.300
 2117SOL    HW2 7008   1.574   4.168   2.276
 2118SOL     OW 7009   1.023   4.490   2.828
 2118SOL    HW1 7010   1.038   4.511   2.924
 2118SOL    HW2 7011   0.993   4.395   2.819
 2119SOL     OW 7012   1.859   5.242   3.467
 2119SOL    HW1 7013   1.873   5.269   3.372
 2119SOL    HW2 7014   1.942   5.264   3.520
 2120SOL     OW 7015   0.350   4.622   3.666
 2120SOL    HW1 7016   0.426   4.666   3.714
 2120SOL    HW2 7017   0.385   4.575   3.584
 2121SOL     OW 7018   1.540   3.998   1.987
 2121SOL    HW1 7019   1.479   3.923   2.010
 2121SOL    HW2 7020   1.562   4.050   2.070
 2122SOL     OW 7021   1.303   4.562   1.904
 2122SOL    HW1 7022   1.337   4.469   1.919
 2122SOL    HW2 7023   1.321   4.589   1.809
 2123SOL     OW 7024   1.068   5.057   2.711
 2123SOL    HW1 7025   1.075   4.973   2.656
 2123SOL    HW2 7026   1.130   5.126   2.675
 2124SOL     OW 7027   0.319   4.534   2.811
 2124SOL    HW1 7028   0.412   4.570   2.816
 2124SOL    HW2 7029   0.313   4.449   2.863
 2125SOL     OW 7030   0.339   4.233   2.868
 2125SOL    HW1 7031   0.287   4.150   2.851
 2125SOL    HW2 7032   0.416   4.238   2.804
 2126SOL     OW 7033   1.138   4.104   3.540
 2126SOL    HW1 7034   1.093   4.167   3.604
 2126SOL    HW2 7035   1.231   4.135   3.523
 2127SOL     OW 7036   1.160   3.931   3.339
 2127SOL    HW1 7037   1.160   3.995   3.416
 2127SOL    HW2 7038   1.188   3.979   3.256
 2128SOL     OW 7039   0.008   5.050   2.062
 2128SOL    HW1 7040  -0.085   5.071   2.031
 2128SOL    HW2 7041   0.018   4.951   2.075
 2129SOL     OW 7042   1.002   4.520   3.100
 2129SOL    HW1 7043   1.043   4.488   3.186
 2129SOL    HW2 7044   0.906   4.493   3.097
 2130SOL     OW 7045   0.040   4.268   2.976
 2130SOL    HW1 7046   0.125   4.235   2.935
 2130SOL    HW2 7047   0.053   4.283   3.074
 2131SOL     OW 7048   0.189   4.244   3.584
 2131SOL    HW1 7049   0.248   4.204   3.514
 2131SOL    HW2 7050   0.131   4.315   3.543
 2132SOL     OW 7051   1.369   4.674   3.522
 2132SOL    HW1 7052   1.408   4.763   3.542
 2132SOL    HW2 7053   1.379   4.654   3.425
 2133SOL     OW 7054   0.815   4.296   2.187
 2133SOL    HW1 7055   0.822   4.207   2.141
 2133SOL    HW2 7056   0.721   4.330   2.179
 2134SOL     OW 7057   1.657   4.328   3.068
 2134SOL    HW1 7058   1.619   4.259   3.130
 2134SOL    HW2 7059   1.739   4.292   3.024
 2135SOL     OW 7060   0.252   5.288   3.606
 2135SOL    HW1 7061   0.222   5.345   3.682
 2135SOL    HW2 7062   0.245   5.191   3.632
 2136SOL     OW 7063   0.671   4.188   3.131
 2136SOL    HW1 7064   0.637   4.099   3.101
 2136SOL    HW2 7065   0.697   4.242   3.051
 2137SOL     OW 7066   0.473   4.224   2.053
 2137SOL    HW1 7067   0.534   4.304   2.057
 2137SOL    HW2 7068   0.378   4.255   2.060
 2138SOL     OW 7069   0.159   4.861   3.328
 2138SOL    HW1 7070   0.181   4.800   3.404
 2138SOL    HW2 7071   0.169   4.812   3.242
 2139SOL     OW 7072   1.347   4.783   3.096
 2139SOL    HW1 7073   1.371   4.720   3.022
 2139SOL    HW2 7074   1.257   4.823   3.078
 2140SOL     OW 7075   1.302   4.579   2.171
 2140SOL    HW1 7076   1.216   4.548   2.213
 2140SOL    HW2 7077   1.298   4.565   2.072
 2141SOL     OW 7078   0.083   4.982   2.884
 2141SOL    HW1 7079   0.078   4.981   2.984
 2141SOL    HW2 7080   0.000   4.941   2.846
 2142SOL     OW 7081   0.688   5.386   3.578
 2142SOL    HW1 7082   0.632   5.467   3.587
 2142SOL    HW2 7083   0.740   5.390   3.492
 2143SOL     OW 7084   1.726   3.859   2.385
 2143SOL    HW1 7085   1.799   3.842   2.318
 2143SOL    HW2 7086   1.695   3.772   2.423
 2144SOL     OW 7087   1.280   4.651   2.534
 2144SOL    HW1 7088   1.340   4.570   2.536
 2144SOL    HW2 7089   1.320   4.720   2.474
 2145SOL     OW 7090   0.830   4.997   3.284
 2145SOL    HW1 7091   0.825   5.030   3.379
 2145SOL    HW2 7092   0.744   5.016   3.238
 2146SOL     OW 7093   1.841   3.899   2.825
 2146SOL    HW1 7094   1.880   3.814   2.789
 2146SOL    HW2 7095   1.743   3.901   2.806
 2147SOL     OW 7096   0.263   4.050   2.582
 2147SOL    HW1 7097   0.184   4.101   2.548
 2147SOL    HW2 7098   0.254   4.035   2.680
 2148SOL     OW 7099   0.822   4.726   3.234
 2148SOL    HW1 7100   0.862   4.725   3.142
 2148SOL    HW2 7101   0.832   4.818   3.274
 2149SOL     OW 7102   0.916   4.634   2.153
 2149SOL    HW1 7103   0.979   4.672   2.085
 2149SOL    HW2 7104   0.956   4.551   2.192
 2150SOL     OW 7105   0.372   5.012   3.352
 2150SOL    HW1 7106   0.359   5.105   3.318
 2150SOL    HW2 7107   0.288   4.960   3.339
 2151SOL     OW 7108   1.614   5.016   3.151
 2151SOL    HW1 7109   1.674   5.019   3.231
 2151SOL    HW2 7110   1.539   5.080   3.164
 2152SOL     OW 7111   1.039   4.822   2.558
 2152SOL    HW1 7112   0.969   4.775   2.612
 2152SOL    HW2 7113   1.098   4.754   2.515
 2153SOL     OW 7114   1.014   3.960   2.833
 2153SOL    HW1 7115   1.006   3.924   2.740
 2153SOL    HW2 7116   1.012   3.884   2.898
 2154SOL     OW 7117   1.709   4.109   3.243
 2154SOL    HW1 7118   1.782   4.178   3.247
 2154SOL    HW2 7119   1.737   4.034   3.184
 2155SOL     OW 7120   0.255   5.072   2.152
 2155SOL    HW1 7121   0.159   5.073   2.125
 2155SOL    HW2 7122   0.267   5.125   2.236
 2156SOL     OW 7123   0.105   4.737   3.588
 2156SOL    HW1 7124   0.028   4.704   3.642
 2156SOL    HW2 7125   0.190   4.707   3.630
 2157SOL     OW 7126   0.672   3.927   3.351
 2157SOL    HW1 7127   0.762   3.911   3.311
 2157SOL    HW2 7128   0.680   3.932   3.450
 2158SOL     OW 7129   0.075   4.069   1.895
 2158SOL    HW1 7130  -0.017   4.041   1.866
 2158SOL    HW2 7131   0.106   4.146   1.839
 2159SOL     OW 7132   1.440   4.580   3.260
 2159SOL    HW1 7133   1.383   4.632   3.197
 2159SOL    HW2 7134   1.536   4.592   3.236
 2160SOL     OW 7135   0.072   3.890   2.180
 2160SOL    HW1 7136   0.055   3.973   2.126
 2160SOL    HW2 7137   0.162   3.853   2.158
 2161SOL     OW 7138   1.183   5.059   1.981
 2161SOL    HW1 7139   1.084   5.048   1.983
 2161SOL    HW2 7140   1.217   5.074   2.074
 2162SOL     OW 7141   0.613   4.566   3.293
 2162SOL    HW1 7142   0.669   4.647   3.276
 2162SOL    HW2 7143   0.672   4.486   3.296
 2163SOL     OW 7144   0.716   4.289   3.570
 2163SOL    HW1 7145   0.735   4.354   3.644
 2163SOL    HW2 7146   0.776   4.209   3.579
 2164SOL     OW 7147   1.450   4.944   3.495
 2164SOL    HW1 7148   1.441   4.934   3.594
 2164SOL    HW2 7149   1.546   4.937   3.469
 2165SOL     OW 7150   1.674   4.607   3.116
 2165SOL    HW1 7151   1.647   4.518   3.079
 2165SOL    HW2 7152   1.675   4.675   3.043
 2166SOL     OW 7153   1.225   4.049   2.311
 2166SOL    HW1 7154   1.290   3.975   2.300
 2166SOL    HW2 7155   1.245   4.099   2.395
 2167SOL     OW 7156   0.594   4.469   2.514
 2167SOL    HW1 7157   0.644   4.554   2.495
 2167SOL    HW2 7158   0.506   4.471   2.466
 2168SOL     OW 7159   1.777   4.066   3.504
 2168SOL    HW1 7160   1.760   4.097   3.410
 2168SOL    HW2 7161   1.693   4.029   3.542
 2169SOL     OW 7162   1.730   4.658   3.379
 2169SOL    HW1 7163   1.768   4.749   3.394
 2169SOL    HW2 7164   1.722   4.641   3.280
 2170SOL     OW 7165   0.859   5.098   1.878
 2170SOL    HW1 7166   0.813   5.113   1.966
 2170SOL    HW2 7167   0.903   5.183   1.848
 2171SOL     OW 7168   0.859   4.680   2.723
 2171SOL    HW1 7169   0.913   4.611   2.771
 2171SOL    HW2 7170   0.827   4.749   2.789
 2172SOL     OW 7171   1.083   4.708   1.949
 2172SOL    HW1 7172   1.060   4.761   1.867
 2172SOL    HW2 7173   1.164   4.652   1.930
 2173SOL     OW 7174   0.221   5.038   3.706
 2173SOL    HW1 7175   0.156   4.965   3.685
 2173SOL    HW2 7176   0.225   5.052   3.804
 2174SOL     OW 7177   0.079   4.964   2.515
 2174SOL    HW1 7178   0.078   4.917   2.603
 2174SOL    HW2 7179   0.161   4.936   2.464
 2175SOL     OW 7180   0.672   5.115   3.486
 2175SOL    HW1 7181   0.594   5.065   3.524
 2175SOL    HW2 7182   0.669   5.210   3.517
 2176SOL     OW 7183   1.824   3.916   3.089
 2176SOL    HW1 7184   1.820   3.826   3.133
 2176SOL    HW2 7185   1.827   3.905   2.990
 2177SOL     OW 7186   0.428   4.148   2.382
 2177SOL    HW1 7187   0.458   4.076   2.320
 2177SOL    HW2 7188   0.389   4.108   2.465
 2178SOL     OW 7189   1.705   5.211   2.966
 2178SOL    HW1 7190   1.612   5.186   2.939
 2178SOL    HW2 7191   1.731   5.161   3.048
 2179SOL     OW 7192   0.317   4.271   3.142
 2179SOL    HW1 7193   0.355   4.212   3.214
 2179SOL    HW2 7194   0.357   4.245   3.054
 2180SOL     OW 7195   1.424   3.938   2.974
 2180SOL    HW1 7196   1.476   3.873   3.029
 2180SOL    HW2 7197   1.375   4.001   3.035
 2181SOL     OW 7198   1.001   3.758   3.016
 2181SOL    HW1 7199   0.938   3.686   2.985
 2181SOL    HW2 7200   1.094   3.722   3.016
 2182SOL     OW 7201   0.770   5.054   2.163
 2182SOL    HW1 7202   0.724   4.967   2.180
 2182SOL    HW2 7203   0.861   5.051   2.204
 2183SOL     OW 7204   0.618   5.291   3.146
 2183SOL    HW1 7205   0.613   5.373   3.203
 2183SOL    HW2 7206   0.707   5.288   3.101
 2184SOL     OW 7207   1.352   3.776   2.030
 2184SOL    HW1 7208   1.387   3.735   1.946
 2184SOL    HW2 7209   1.262   3.738   2.050
 2185SOL     OW 7210   1.300   4.177   2.553
 2185SOL    HW1 7211   1.241   4.257   2.557
 2185SOL    HW2 7212   1.315   4.142   2.646
 2186SOL     OW 7213   1.593   3.945   2.744
 2186SOL    HW1 7214   1.509   3.944   2.798
 2186SOL    HW2 7215   1.595   4.028   2.688
 2187SOL     OW 7216   0.039   4.801   2.162
 2187SOL    HW1 7217   0.138   4.790   2.153
 2187SOL    HW2 7218  -0.001   4.715   2.194
 2188SOL     OW 7219   0.230   4.352   3.837
 2188SOL    HW1 7220   0.137   4.350   3.874
 2188SOL    HW2 7221   0.231   4.313   3.745
 2189SOL     OW 7222   0.225   3.999   4.720
 2189SOL    HW1 7223   0.260   3.982   4.812
 2189SOL    HW2 7224   0.137   3.954   4.708
 2190SOL     OW 7225   0.019   4.092   4.371
 2190SOL    HW1 7226  -0.063   4.135   4.410
 2190SOL    HW2 7227  -0.009   4.019   4.308
 2191SOL     OW 7228   0.569   4.999   4.889
 2191SOL    HW1 7229   0.476   4.992   4.852
 2191SOL    HW2 7230   0.580   5.088   4.933
 2192SOL     OW 7231   1.555   5.235   4.427
 2192SOL    HW1 7232   1.498   5.219   4.508
 2192SOL    HW2 7233   1.496   5.245   4.347
 2193SOL     OW 7234   1.135   4.427   4.441
 2193SOL    HW1 7235   1.192   4.505   4.416
 2193SOL    HW2 7236   1.075   4.453   4.517
 2194SOL     OW 7237   1.755   4.331   3.955
 2194SOL    HW1 7238   1.743   4.318   3.856
 2194SOL    HW2 7239   1.725   4.250   4.004
 2195SOL     OW 7240   0.768   4.868   4.747
 2195SOL    HW1 7241   0.690   4.885   4.807
 2195SOL    HW2 7242   0.802   4.955   4.711
 2196SOL     OW 7243   0.850   4.522   5.547
 2196SOL    HW1 7244   0.846   4.598   5.612
 2196SOL    HW2 7245   0.872   4.558   5.456
 2197SOL     OW 7246   0.685   4.736   4.389
 2197SOL    HW1 7247   0.754   4.720   4.459
 2197SOL    HW2 7248   0.612   4.793   4.427
 2198SOL     OW 7249   0.686   4.885   5.527
 2198SOL    HW1 7250   0.746   4.964   5.541
 2198SOL    HW2 7251   0.600   4.916   5.486
 2199SOL     OW 7252   0.335   5.159   4.785
 2199SOL    HW1 7253   0.257   5.128   4.732
 2199SOL    HW2 7254   0.393   5.217   4.728
 2200SOL     OW 7255   1.460   5.229   5.063
 2200SOL    HW1 7256   1.484   5.323   5.089
 2200SOL    HW2 7257   1.444   5.175   5.145
 2201SOL     OW 7258   0.438   4.116   5.223
 2201SOL    HW1 7259   0.520   4.060   5.232
 2201SOL    HW2 7260   0.357   4.058   5.227
 2202SOL     OW 7261   1.603   4.171   4.461
 2202SOL    HW1 7262   1.529   4.217   4.411
 2202SOL    HW2 7263   1.654   4.239   4.514
 2203SOL     OW 7264   1.127   5.065   5.414
 2203SOL    HW1 7265   1.174   5.065   5.502
 2203SOL    HW2 7266   1.079   4.978   5.403
 2204SOL     OW 7267   0.230   5.158   4.262
 2204SOL    HW1 7268   0.204   5.254   4.262
 2204SOL    HW2 7269   0.159   5.104   4.307
 2205SOL     OW 7270   0.240   4.815   4.610
 2205SOL    HW1 7271   0.254   4.731   4.662
 2205SOL    HW2 7272   0.185   4.879   4.665
 2206SOL     OW 7273   0.606   4.688   3.847
 2206SOL    HW1 7274   0.613   4.772   3.793
 2206SOL    HW2 7275   0.652   4.701   3.935
 2207SOL     OW 7276   1.594   3.838   5.204
 2207SOL    HW1 7277   1.576   3.905   5.132
 2207SOL    HW2 7278   1.591   3.884   5.293
 2208SOL     OW 7279   0.122   4.367   4.287
 2208SOL    HW1 7280   0.077   4.279   4.304
 2208SOL    HW2 7281   0.121   4.421   4.371
 2209SOL     OW 7282   0.027   5.320   3.841
 2209SOL    HW1 7283   0.008   5.224   3.862
 2209SOL    HW2 7284  -0.006   5.378   3.916
 2210SOL     OW 7285   1.689   4.646   4.336
 2210SOL    HW1 7286   1.784   4.617   4.344
 2210SOL    HW2 7287   1.681   4.711   4.261
 2211SOL     OW 7288   1.641   4.832   4.156
 2211SOL    HW1 7289   1.727   4.834   4.104
 2211SOL    HW2 7290   1.655   4.879   4.244
 2212SOL     OW 7291   0.113   4.461   5.321
 2212SOL    HW1 7292   0.201   4.448   5.366
 2212SOL    HW2 7293   0.100   4.558   5.299
 2213SOL     OW 7294   0.613   5.089   4.450
 2213SOL    HW1 7295   0.564   5.002   4.459
 2213SOL    HW2 7296   0.590   5.132   4.363
 2214SOL     OW 7297   1.293   4.952   5.147
 2214SOL    HW1 7298   1.330   4.879   5.089
 2214SOL    HW2 7299   1.345   4.957   5.232
 2215SOL     OW 7300   0.809   3.728   4.226
 2215SOL    HW1 7301   0.849   3.819   4.217
 2215SOL    HW2 7302   0.709   3.736   4.232
 2216SOL     OW 7303   0.197   4.700   4.988
 2216SOL    HW1 7304   0.286   4.655   4.974
 2216SOL    HW2 7305   0.124   4.635   4.969
 2217SOL     OW 7306   1.525   4.723   3.914
 2217SOL    HW1 7307   1.462   4.647   3.927
 2217SOL    HW2 7308   1.573   4.741   4.000
 2218SOL     OW 7309   0.317   3.975   5.525
 2218SOL    HW1 7310   0.388   4.046   5.531
 2218SOL    HW2 7311   0.229   4.014   5.553
 2219SOL     OW 7312   1.466   5.141   4.677
 2219SOL    HW1 7313   1.407   5.147   4.757
 2219SOL    HW2 7314   1.451   5.053   4.631
 2220SOL     OW 7315   0.598   4.453   3.994
 2220SOL    HW1 7316   0.622   4.522   3.926
 2220SOL    HW2 7317   0.520   4.486   4.048
 2221SOL     OW 7318   1.281   4.069   4.668
 2221SOL    HW1 7319   1.195   4.019   4.655
 2221SOL    HW2 7320   1.343   4.015   4.724
 2222SOL     OW 7321   0.807   4.329   5.189
 2222SOL    HW1 7322   0.760   4.326   5.278
 2222SOL    HW2 7323   0.756   4.274   5.123
 2223SOL     OW 7324   1.394   4.193   5.398
 2223SOL    HW1 7325   1.374   4.236   5.486
 2223SOL    HW2 7326   1.472   4.131   5.407
 2224SOL     OW 7327   0.973   4.614   5.296
 2224SOL    HW1 7328   1.019   4.530   5.267
 2224SOL    HW2 7329   0.917   4.648   5.221
 2225SOL     OW 7330   0.991   4.134   4.966
 2225SOL    HW1 7331   0.914   4.168   5.020
 2225SOL    HW2 7332   0.957   4.083   4.887
 2226SOL     OW 7333   1.041   4.425   4.153
 2226SOL    HW1 7334   1.067   4.421   4.249
 2226SOL    HW2 7335   0.956   4.374   4.139
 2227SOL     OW 7336   0.076   4.535   4.513
 2227SOL    HW1 7337   0.175   4.523   4.522
 2227SOL    HW2 7338   0.052   4.630   4.534
 2228SOL     OW 7339   0.865   4.072   3.919
 2228SOL    HW1 7340   0.924   4.135   3.870
 2228SOL    HW2 7341   0.884   3.978   3.890
 2229SOL     OW 7342   1.719   4.309   5.555
 2229SOL    HW1 7343   1.693   4.398   5.519
 2229SOL    HW2 7344   1.717   4.241   5.482
 2230SOL     OW 7345   1.362   4.868   4.269
 2230SOL    HW1 7346   1.445   4.839   4.221
 2230SOL    HW2 7347   1.313   4.935   4.213
 2231SOL     OW 7348   0.550   3.920   4.609
 2231SOL    HW1 7349   0.545   3.915   4.709
 2231SOL    HW2 7350   0.552   4.016   4.580
 2232SOL     OW 7351   1.008   5.180   4.201
 2232SOL    HW1 7352   0.962   5.252   4.149
 2232SOL    HW2 7353   1.004   5.200   4.299
 2233SOL     OW 7354   1.795   4.790   4.597
 2233SOL    HW1 7355   1.733   4.775   4.521
 2233SOL    HW2 7356   1.743   4.801   4.682
 2234SOL     OW 7357   1.227   5.274   5.230
 2234SOL    HW1 7358   1.233   5.197   5.294
 2234SOL    HW2 7359   1.175   5.248   5.150
 2235SOL     OW 7360   0.321   4.667   3.966
 2235SOL    HW1 7361   0.403   4.706   3.924
 2235SOL    HW2 7362   0.294   4.585   3.917
 2236SOL     OW 7363   1.458   4.459   4.452
 2236SOL    HW1 7364   1.453   4.394   4.527
 2236SOL    HW2 7365   1.538   4.518   4.465
 2237SOL     OW 7366   0.461   4.990   5.451
 2237SOL    HW1 7367   0.411   4.991   5.365
 2237SOL    HW2 7368   0.398   4.972   5.527
 2238SOL     OW 7369   1.111   5.500   3.961
 2238SOL    HW1 7370   1.051   5.438   4.011
 2238SOL    HW2 7371   1.142   5.456   3.876
 2239SOL     OW 7372   0.202   4.009   5.222
 2239SOL    HW1 7373   0.122   4.069   5.209
 2239SOL    HW2 7374   0.192   3.960   5.308
 2240SOL     OW 7375   1.632   5.101   3.805
 2240SOL    HW1 7376   1.600   5.195   3.795
 2240SOL    HW2 7377   1.556   5.038   3.793
 2241SOL     OW 7378   1.400   3.831   4.150
 2241SOL    HW1 7379   1.376   3.794   4.060
 2241SOL    HW2 7380   1.499   3.847   4.154
 2242SOL     OW 7381   0.382   4.424   4.204
 2242SOL    HW1 7382   0.427   4.334   4.201
 2242SOL    HW2 7383   0.288   4.413   4.237
 2243SOL     OW 7384   1.547   3.946   5.453
 2243SOL    HW1 7385   1.542   3.983   5.545
 2243SOL    HW2 7386   1.475   3.877   5.441
 2244SOL     OW 7387   0.614   3.846   3.841
 2244SOL    HW1 7388   0.712   3.824   3.848
 2244SOL    HW2 7389   0.583   3.829   3.748
 2245SOL     OW 7390   0.781   3.988   5.473
 2245SOL    HW1 7391   0.848   3.927   5.516
 2245SOL    HW2 7392   0.708   4.007   5.538
 2246SOL     OW 7393   1.351   4.314   5.157
 2246SOL    HW1 7394   1.379   4.271   5.242
 2246SOL    HW2 7395   1.376   4.410   5.158
 2247SOL     OW 7396   0.803   5.126   4.648
 2247SOL    HW1 7397   0.893   5.140   4.606
 2247SOL    HW2 7398   0.732   5.128   4.577
 2248SOL     OW 7399   0.922   4.227   4.623
 2248SOL    HW1 7400   0.897   4.218   4.527
 2248SOL    HW2 7401   0.970   4.145   4.654
 2249SOL     OW 7402   0.539   3.788   4.236
 2249SOL    HW1 7403   0.458   3.789   4.294
 2249SOL    HW2 7404   0.542   3.871   4.181
 2250SOL     OW 7405   1.434   4.912   3.765
 2250SOL    HW1 7406   1.466   4.836   3.822
 2250SOL    HW2 7407   1.342   4.939   3.795
 2251SOL     OW 7408   0.297   3.759   3.895
 2251SOL    HW1 7409   0.346   3.843   3.874
 2251SOL    HW2 7410   0.359   3.694   3.940
 2252SOL     OW 7411   0.935   3.960   4.204
 2252SOL    HW1 7412   0.887   4.001   4.126
 2252SOL    HW2 7413   1.034   3.958   4.185
 2253SOL     OW 7414   1.076   4.407   5.188
 2253SOL    HW1 7415   0.996   4.346   5.191
 2253SOL    HW2 7416   1.157   4.354   5.164
 2254SOL     OW 7417   1.227   5.294   4.517
 2254SOL    HW1 7418   1.248   5.368   4.452
 2254SOL    HW2 7419   1.295   5.294   4.590
 2255SOL     OW 7420   0.459   4.876   4.465
 2255SOL    HW1 7421   0.388   4.849   4.530
 2255SOL    HW2 7422   0.433   4.848   4.372
 2256SOL     OW 7423   1.032   4.273   3.740
 2256SOL    HW1 7424   0.991   4.355   3.701
 2256SOL    HW2 7425   1.096   4.299   3.813
 2257SOL     OW 7426   0.078   4.280   5.110
 2257SOL    HW1 7427   0.170   4.279   5.069
 2257SOL    HW2 7428   0.072   4.354   5.177
 2258SOL     OW 7429   0.561   3.946   4.871
 2258SOL    HW1 7430   0.599   3.862   4.908
 2258SOL    HW2 7431   0.473   3.965   4.915
 2259SOL     OW 7432   0.866   4.178   4.366
 2259SOL    HW1 7433   0.834   4.250   4.304
 2259SOL    HW2 7434   0.890   4.097   4.313
 2260SOL     OW 7435   1.017   3.763   4.477
 2260SOL    HW1 7436   0.945   3.768   4.408
 2260SOL    HW2 7437   0.993   3.694   4.546
 2261SOL     OW 7438   1.429   4.897   4.591
 2261SOL    HW1 7439   1.374   4.813   4.584
 2261SOL    HW2 7440   1.455   4.926   4.499
 2262SOL     OW 7441   1.466   4.314   4.716
 2262SOL    HW1 7442   1.436   4.219   4.723
 2262SOL    HW2 7443   1.539   4.330   4.782
 2263SOL     OW 7444   1.857   4.557   4.101
 2263SOL    HW1 7445   1.899   4.493   4.165
 2263SOL    HW2 7446   1.819   4.506   4.023
 2264SOL     OW 7447   0.488   5.109   3.898
 2264SOL    HW1 7448   0.401   5.094   3.945
 2264SOL    HW2 7449   0.471   5.135   3.803
 2265SOL     OW 7450   1.664   5.004   4.381
 2265SOL    HW1 7451   1.763   5.012   4.395
 2265SOL    HW2 7452   1.619   5.088   4.412
 2266SOL     OW 7453   1.390   4.299   3.802
 2266SOL    HW1 7454   1.336   4.278   3.883
 2266SOL    HW2 7455   1.481   4.258   3.811
 2267SOL     OW 7456   0.527   3.980   4.052
 2267SOL    HW1 7457   0.554   3.921   3.977
 2267SOL    HW2 7458   0.527   4.075   4.021
 2268SOL     OW 7459   1.754   4.947   5.312
 2268SOL    HW1 7460   1.845   4.908   5.299
 2268SOL    HW2 7461   1.762   5.043   5.336
 2269SOL     OW 7462   1.064   5.071   5.064
 2269SOL    HW1 7463   0.984   5.048   5.119
 2269SOL    HW2 7464   1.147   5.045   5.113
 2270SOL     OW 7465   1.111   4.919   4.824
 2270SOL    HW1 7466   1.071   4.963   4.905
 2270SOL    HW2 7467   1.070   4.956   4.741
 2271SOL     OW 7468   1.638   4.823   4.803
 2271SOL    HW1 7469   1.643   4.904   4.862
 2271SOL    HW2 7470   1.552   4.825   4.752
 2272SOL     OW 7471   0.915   3.813   5.126
 2272SOL    HW1 7472   0.940   3.793   5.031
 2272SOL    HW2 7473   0.987   3.869   5.168
 2273SOL     OW 7474   0.980   4.840   5.443
 2273SOL    HW1 7475   0.881   4.846   5.453
 2273SOL    HW2 7476   1.003   4.760   5.387
 2274SOL     OW 7477   0.705   4.774   4.092
 2274SOL    HW1 7478   0.691   4.781   4.191
 2274SOL    HW2 7479   0.789   4.723   4.074
 2275SOL     OW 7480   0.410   4.537   4.975
 2275SOL    HW1 7481   0.496   4.549   5.025
 2275SOL    HW2 7482   0.368   4.450   5.002
 2276SOL     OW 7483   1.274   4.110   4.986
 2276SOL    HW1 7484   1.295   4.184   5.050
 2276SOL    HW2 7485   1.185   4.127   4.943
 2277SOL     OW 7486   0.064   5.288   5.055
 2277SOL    HW1 7487   0.018   5.370   5.021
 2277SOL    HW2 7488   0.162   5.307   5.064
 2278SOL     OW 7489   0.367   4.824   4.225
 2278SOL    HW1 7490   0.360   4.907   4.169
 2278SOL    HW2 7491   0.371   4.744   4.165
 2279SOL     OW 7492   0.566   4.261   4.589
 2279SOL    HW1 7493   0.578   4.327   4.515
 2279SOL    HW2 7494   0.612   4.295   4.672
 2280SOL     OW 7495   1.252   5.072   4.112
 2280SOL    HW1 7496   1.302   5.149   4.152
 2280SOL    HW2 7497   1.157   5.074   4.144
 2281SOL     OW 7498   1.272   5.169   4.866
 2281SOL    HW1 7499   1.319   5.182   4.953
 2281SOL    HW2 7500   1.206   5.095   4.875
 2282SOL     OW 7501   1.582   4.363   4.196
 2282SOL    HW1 7502   1.551   4.424   4.269
 2282SOL    HW2 7503   1.632   4.415   4.127
 2283SOL     OW 7504   0.354   5.234   5.053
 2283SOL    HW1 7505   0.333   5.190   4.966
 2283SOL    HW2 7506   0.451   5.260   5.056
 2284SOL     OW 7507   0.402   4.475   5.322
 2284SOL    HW1 7508   0.470   4.530   5.275
 2284SOL    HW2 7509   0.442   4.387   5.349
 2285SOL     OW 7510   1.587   4.503   5.394
 2285SOL    HW1 7511   1.495   4.541   5.389
 2285SOL    HW2 7512   1.647   4.550   5.329
 2286SOL     OW 7513   1.013   3.829   5.494
 2286SOL    HW1 7514   1.019   3.914   5.442
 2286SOL    HW2 7515   1.045   3.753   5.437
 2287SOL     OW 7516   0.504   3.774   5.464
 2287SOL    HW1 7517   0.462   3.717   5.394
 2287SOL    HW2 7518   0.438   3.843   5.496
 2288SOL     OW 7519   0.573   4.594   4.753
 2288SOL    HW1 7520   0.617   4.683   4.744
 2288SOL    HW2 7521   0.510   4.594   4.830
 2289SOL     OW 7522   1.360   4.586   4.769
 2289SOL    HW1 7523   1.285   4.586   4.703
 2289SOL    HW2 7524   1.397   4.494   4.778
 2290SOL     OW 7525   1.209   4.249   3.999
 2290SOL    HW1 7526   1.222   4.165   4.053
 2290SOL    HW2 7527   1.180   4.323   4.059
 2291SOL     OW 7528   0.307   3.937   4.955
 2291SOL    HW1 7529   0.284   3.974   5.045
 2291SOL    HW2 7530   0.277   3.842   4.949
 2292SOL     OW 7531   0.037   5.034   5.006
 2292SOL    HW1 7532   0.090   4.985   5.074
 2292SOL    HW2 7533   0.059   5.132   5.011
 2293SOL     OW 7534   0.732   4.358   4.788
 2293SOL    HW1 7535   0.791   4.332   4.712
 2293SOL    HW2 7536   0.704   4.454   4.777
 2294SOL     OW 7537   1.728   4.659   5.578
 2294SOL    HW1 7538   1.682   4.652   5.489
 2294SOL    HW2 7539   1.666   4.703   5.644
 2295SOL     OW 7540   0.307   3.787   4.342
 2295SOL    HW1 7541   0.296   3.881   4.375
 2295SOL    HW2 7542   0.302   3.724   4.419
 2296SOL     OW 7543   1.622   4.091   4.098
 2296SOL    HW1 7544   1.624   4.015   4.162
 2296SOL    HW2 7545   1.574   4.168   4.138
 2297SOL     OW 7546   1.023   4.490   4.690
 2297SOL    HW1 7547   1.038   4.511   4.786
 2297SOL    HW2 7548   0.993   4.395   4.681
 2298SOL     OW 7549   1.859   5.242   5.329
 2298SOL    HW1 7550   1.873   5.269   5.234
 2298SOL    HW2 7551   1.942   5.264   5.382
 2299SOL     OW 7552   0.350   4.622   5.528
 2299SOL    HW1 7553   0.426   4.666   5.576
 2299SOL    HW2 7554   0.385   4.575   5.446
 2300SOL     OW 7555   1.540   3.998   3.849
 2300SOL    HW1 7556   1.479   3.923   3.872
 2300SOL    HW2 7557   1.562   4.050   3.932
 2301SOL     OW 7558   1.303   4.562   3.766
 2301SOL    HW1 7559   1.337   4.469   3.781
 2301SOL    HW2 7560   1.321   4.589   3.671
 2302SOL     OW 7561   1.068   5.057   4.573
 2302SOL    HW1 7562   1.075   4.973   4.518
 2302SOL    HW2 7563   1.130   5.126   4.537
 2303SOL     OW 7564   0.319   4.534   4.673
 2303SOL    HW1 7565   0.412   4.570   4.678
 2303SOL    HW2 7566   0.313   4.449   4.725
 2304SOL     OW 7567   0.339   4.233   4.730
 2304SOL    HW1 7568   0.287   4.150   4.713
 2304SOL    HW2 7569   0.416   4.238   4.666
 2305SOL     OW 7570   1.138   4.104   5.402
 2305SOL    HW1 7571   1.093   4.167   5.466
 2305SOL    HW2 7572   1.231   4.135   5.385
 2306SOL     OW 7573   1.160   3.931   5.201
 2306SOL    HW1 7574   1.160   3.995   5.278
 2306SOL    HW2 7575   1.188   3.979   5.118
 2307SOL     OW 7576   0.008   5.050   3.924
 2307SOL    HW1 7577  -0.085   5.071   3.893
 2307SOL    HW2 7578   0.018   4.951   3.937
 2308SOL     OW 7579   1.002   4.520   4.962
 2308SOL    HW1 7580   1.043   4.488   5.048
 2308SOL    HW2 7581   0.906   4.493   4.959
 2309SOL     OW 7582   0.040   4.268   4.838
 2309SOL    HW1 7583   0.125   4.235   4.797
 2309SOL    HW2 7584   0.053   4.283   4.936
 2310SOL     OW 7585   0.189   4.244   5.446
 2310SOL    HW1 7586   0.248   4.204   5.376
 2310SOL    HW2 7587   0.131   4.315   5.405
 2311SOL     OW 7588   1.369   4.674   5.384
 2311SOL    HW1 7589   1.408   4.763   5.404
 2311SOL    HW2 7590   1.379   4.654   5.287
 2312SOL     OW 7591   0.815   4.296   4.049
 2312SOL    HW1 7592   0.822   4.207   4.003
 2312SOL    HW2 7593   0.721   4.330   4.041
 2313SOL     OW 7594   1.657   4.328   4.930
 2313SOL    HW1 7595   1.619   4.259   4.992
 2313SOL    HW2 7596   1.739   4.292   4.886
 2314SOL     OW 7597   0.252   5.288   5.468
 2314SOL    HW1 7598   0.222   5.345   5.544
 2314SOL    HW2 7599   0.245   5.191   5.494
 2315SOL     OW 7600   0.671   4.188   4.993
 2315SOL    HW1 7601   0.637   4.099   4.963
 2315SOL    HW2 7602   0.697   4.242   4.913
 2316SOL     OW 7603   0.473   4.224   3.915
 2316SOL    HW1 7604   0.534   4.304   3.919
 2316SOL    HW2 7605   0.378   4.255   3.922
 2317SOL     OW 7606   0.159   4.861   5.190
 2317SOL    HW1 7607   0.181   4.800   5.266
 2317SOL    HW2 7608   0.169   4.812   5.104
 2318SOL     OW 7609   1.347   4.783   4.958
 2318SOL    HW1 7610   1.371   4.720   4.884
 2318SOL    HW2 7611   1.257   4.823   4.940
 2319SOL     OW 7612   1.302   4.579   4.033
 2319SOL    HW1 7613   1.216   4.548   4.075
 2319SOL    HW2 7614   1.298   4.565   3.934
 2320SOL     OW 7615   0.083   4.982   4.746
 2320SOL    HW1 7616   0.078   4.981   4.846
 2320SOL    HW2 7617   0.000   4.941   4.708
 2321SOL     OW 7618   0.688   5.386   5.440
 2321SOL    HW1 7619   0.632   5.467   5.449
 2321SOL    HW2 7620   0.740   5.390   5.354
 2322SOL     OW 7621   1.726   3.859   4.247
 2322SOL    HW1 7622   1.799   3.842   4.180
 2322SOL    HW2 7623   1.695   3.772   4.285
 2323SOL     OW 7624   1.280   4.651   4.396
 2323SOL    HW1 7625   1.340   4.570   4.398
 2323SOL    HW2 7626   1.320   4.720   4.336
 2324SOL     OW 7627   0.830   4.997   5.146
 2324SOL    HW1 7628   0.825   5.030   5.241
 2324SOL    HW2 7629   0.744   5.016   5.100
 2325SOL     OW 7630   1.841   3.899   4.687
 2325SOL    HW1 7631   1.880   3.814   4.651
 2325SOL    HW2 7632   1.743   3.901   4.668
 2326SOL     OW 7633   0.263   4.050   4.444
 2326SOL    HW1 7634   0.184   4.101   4.410
 2326SOL    HW2 7635   0.254   4.035   4.542
 2327SOL     OW 7636   0.822   4.726   5.096
 2327SOL    HW1 7637   0.862   4.725   5.004
 2327SOL    HW2 7638   0.832   4.818   5.136
 2328SOL     OW 7639   0.916   4.634   4.015
 2328SOL    HW1 7640   0.979   4.672   3.947
 2328SOL    HW2 7641   0.956   4.551   4.054
 2329SOL     OW 7642   0.372   5.012   5.214
 2329SOL    HW1 7643   0.359   5.105   5.180
 2329SOL    HW2 7644   0.288   4.960   5.201
 2330SOL     OW 7645   1.614   5.016   5.013
 2330SOL    HW1 7646   1.674   5.019   5.093
 2330SOL    HW2 7647   1.539   5.080   5.026
 2331SOL     OW 7648   1.039   4.822   4.420
 2331SOL    HW1 7649   0.969   4.775   4.474
 2331SOL    HW2 7650   1.098   4.754   4.377
 2332SOL     OW 7651   1.014   3.960   4.695
 2332SOL    HW1 7652   1.006   3.924   4.602
 2332SOL    HW2 7653   1.012   3.884   4.760
 2333SOL     OW 7654   1.709   4.109   5.105
 2333SOL    HW1 7655   1.782   4.178   5.109
 2333SOL    HW2 7656   1.737   4.034   5.046
 2334SOL     OW 7657   0.255   5.072   4.014
 2334SOL    HW1 7658   0.159   5.073   3.987
 2334SOL    HW2 7659   0.267   5.125   4.098
 2335SOL     OW 7660   0.105   4.737   5.450
 2335SOL    HW1 7661   0.028   4.704   5.504
 2335SOL    HW2 7662   0.190   4.707   5.492
 2336SOL     OW 7663   0.672   3.927   5.213
 2336SOL    HW1 7664   0.762   3.911   5.173
 2336SOL    HW2 7665   0.680   3.932   5.312
 2337SOL     OW 7666   0.075   4.069   3.757
 2337SOL    HW1 7667  -0.017   4.041   3.728
 2337SOL    HW2 7668   0.106   4.146   3.701
 2338SOL     OW 7669   1.440   4.580   5.122
 2338SOL    HW1 7670   1.383   4.632   5.059
 2338SOL    HW2 7671   1.536   4.592   5.098
 2339SOL     OW 7672   0.072   3.890   4.042
 2339SOL    HW1 7673   0.055   3.973   3.988
 2339SOL    HW2 7674   0.162   3.853   4.020
 2340SOL     OW 7675   1.183   5.059   3.843
 2340SOL    HW1 7676   1.084   5.048   3.845
 2340SOL    HW2 7677   1.217   5.074   3.936
 2341SOL     OW 7678   0.613   4.566   5.155
 2341SOL    HW1 7679   0.669   4.647   5.138
 2341SOL    HW2 7680   0.672   4.486   5.158
 2342SOL     OW 7681   0.716   4.289   5.432
 2342SOL    HW1 7682   0.735   4.354   5.506
 2342SOL    HW2 7683   0.776   4.209   5.441
 2343SOL     OW 7684   1.450   4.944   5.357
 2343SOL    HW1 7685   1.441   4.934   5.456
 2343SOL    HW2 7686   1.546   4.937   5.331
 2344SOL     OW 7687   1.674   4.607   4.978
 2344SOL    HW1 7688   1.647   4.518   4.941
 2344SOL    HW2 7689   1.675   4.675   4.905
 2345SOL     OW 7690   1.225   4.049   4.173
 2345SOL    HW1 7691   1.290   3.975   4.162
 2345SOL    HW2 7692   1.245   4.099   4.257
 2346SOL     OW 7693   0.594   4.469   4.376
 2346SOL    HW1 7694   0.644   4.554   4.357
 2346SOL    HW2 7695   0.506   4.471   4.328
 2347SOL     OW 7696   1.777   4.066   5.366
 2347SOL    HW1 7697   1.760   4.097   5.272
 2347SOL    HW2 7698   1.693   4.029   5.404
 2348SOL     OW 7699   1.730   4.658   5.241
 2348SOL    HW1 7700   1.768   4.749   5.256
 2348SOL    HW2 7701   1.722   4.641   5.142
 2349SOL     OW 7702   0.859   5.098   3.740
 2349SOL    HW1 7703   0.813   5.113   3.828
 2349SOL    HW2 7704   0.903   5.183   3.710
 2350SOL     OW 7705   0.859   4.680   4.585
 2350SOL    HW1 7706   0.913   4.611   4.633
 2350SOL    HW2 7707   0.827   4.749   4.651
 2351SOL     OW 7708   1.083   4.708   3.811
 2351SOL    HW1 7709   1.060   4.761   3.729
 2351SOL    HW2 7710   1.164   4.652   3.792
 2352SOL     OW 7711   0.221   5.038   5.568
 2352SOL    HW1 7712   0.156   4.965   5.547
 2352SOL    HW2 7713   0.225   5.052   5.666
 2353SOL     OW 7714   0.079   4.964   4.377
 2353SOL    HW1 7715   0.078   4.917   4.465
 2353SOL    HW2 7716   0.161   4.936   4.326
 2354SOL     OW 7717   0.672   5.115   5.348
 2354SOL    HW1 7718   0.594   5.065   5.386
 2354SOL    HW2 7719   0.669   5.210   5.379
 2355SOL     OW 7720   1.824   3.916   4.951
 2355SOL    HW1 7721   1.820   3.826   4.995
 2355SOL    HW2 7722   1.827   3.905   4.852
 2356SOL     OW 7723   0.428   4.148   4.244
 2356SOL    HW1 7724   0.458   4.076   4.182
 2356SOL    HW2 7725   0.389   4.108   4.327
 2357SOL     OW 7726   1.705   5.211   4.828
 2357SOL    HW1 7727   1.612   5.186   4.801
 2357SOL    HW2 7728   1.731   5.161   4.910
 2358SOL     OW 7729   0.317   4.271   5.004
 2358SOL    HW1 7730   0.355   4.212   5.076
 2358SOL    HW2 7731   0.357   4.245   4.916
 2359SOL     OW 7732   1.424   3.938   4.836
 2359SOL    HW1 7733   1.476   3.873   4.891
 2359SOL    HW2 7734   1.375   4.001   4.897
 2360SOL     OW 7735   1.001   3.758   4.878
 2360SOL    HW1 7736   0.938   3.686   4.847
 2360SOL    HW2 7737   1.094   3.722   4.878
 2361SOL     OW 7738   0.770   5.054   4.025
 2361SOL    HW1 7739   0.724   4.967   4.042
 2361SOL    HW2 7740   0.861   5.051   4.066
 2362SOL     OW 7741   0.618   5.291   5.008
 2362SOL    HW1 7742   0.613   5.373   5.065
 2362SOL    HW2 7743   0.707   5.288   4.963
 2363SOL     OW 7744   1.352   3.776   3.892
 2363SOL    HW1 7745   1.387   3.735   3.808
 2363SOL    HW2 7746   1.262   3.738   3.912
 2364SOL     OW 7747   1.300   4.177   4.415
 2364SOL    HW1 7748   1.241   4.257   4.419
 2364SOL    HW2 7749   1.315   4.142   4.508
 2365SOL     OW 7750   1.593   3.945   4.606
 2365SOL    HW1 7751   1.509   3.944   4.660
 2365SOL    HW2 7752   1.595   4.028   4.550
 2366SOL     OW 7753   0.039   4.801   4.024
 2366SOL    HW1 7754   0.138   4.790   4.015
 2366SOL    HW2 7755  -0.001   4.715   4.056
 2367SOL     OW 7756   0.230   4.352   5.699
 2367SOL    HW1 7757   0.137   4.350   5.736
 2367SOL    HW2 7758   0.231   4.313   5.607
 2368SOL     OW 7759   0.225   3.999   6.582
 2368SOL    HW1 7760   0.260   3.982   6.674
 2368SOL    HW2 7761   0.137   3.954   6.570
 2369SOL     OW 7762   0.019   4.092   6.233
 2369SOL    HW1 7763  -0.063   4.135   6.272
 2369SOL    HW2 7764  -0.009   4.019   6.170
 2370SOL     OW 7765   0.569   4.999   6.751
 2370SOL    HW1 7766   0.476   4.992   6.714
 2370SOL    HW2 7767   0.580   5.088   6.795
 2371SOL     OW 7768   1.555   5.235   6.289
 2371SOL    HW1 7769   1.498   5.219   6.370
 2371SOL    HW2 7770   1.496   5.245   6.209
 2372SOL     OW 7771   1.135   4.427   6.303
 2372SOL    HW1 7772   1.192   4.505   6.278
 2372SOL    HW2 7773   1.075   4.453   6.379
 2373SOL     OW 7774   1.755   4.331   5.817
 2373SOL    HW1 7775   1.743   4.318   5.718
 2373SOL    HW2 7776   1.725   4.250   5.866
 2374SOL     OW 7777   0.768   4.868   6.609
 2374SOL    HW1 7778   0.690   4.885   6.669
 2374SOL    HW2 7779   0.802   4.955   6.573
 2375SOL     OW 7780   0.850   4.522   7.409
 2375SOL    HW1 7781   0.846   4.598   7.474
 2375SOL    HW2 7782   0.872   4.558   7.318
 2376SOL     OW 7783   0.685   4.736   6.251
 2376SOL    HW1 7784   0.754   4.720   6.321
 2376SOL    HW2 7785   0.612   4.793   6.289
 2377SOL     OW 7786   0.686   4.885   7.389
 2377SOL    HW1 7787   0.746   4.964   7.403
 2377SOL    HW2 7788   0.600   4.916   7.348
 2378SOL     OW 7789   0.335   5.159   6.647
 2378SOL    HW1 7790   0.257   5.128   6.594
 2378SOL    HW2 7791   0.393   5.217   6.590
 2379SOL     OW 7792   1.460   5.229   6.925
 2379SOL    HW1 7793   1.484   5.323   6.951
 2379SOL    HW2 7794   1.444   5.175   7.007
 2380SOL     OW 7795   0.438   4.116   7.085
 2380SOL    HW1 7796   0.520   4.060   7.094
 2380SOL    HW2 7797   0.357   4.058   7.089
 2381SOL     OW 7798   1.603   4.171   6.323
 2381SOL    HW1 7799   1.529   4.217   6.273
 2381SOL    HW2 7800   1.654   4.239   6.376
 2382SOL     OW 7801   1.127   5.065   7.276
 2382SOL    HW1 7802   1.174   5.065   7.364
 2382SOL    HW2 7803   1.079   4.978   7.265
 2383SOL     OW 7804   0.230   5.158   6.124
 2383SOL    HW1 7805   0.204   5.254   6.124
 2383SOL    HW2 7806   0.159   5.104   6.169
 2384SOL     OW 7807   0.240   4.815   6.472
 2384SOL    HW1 7808   0.254   4.731   6.524
 2384SOL    HW2 7809   0.185   4.879   6.527
 2385SOL     OW 7810   0.606   4.688   5.709
 2385SOL    HW1 7811   0.613   4.772   5.655
 2385SOL    HW2 7812   0.652   4.701   5.797
 2386SOL     OW 7813   1.594   3.838   7.066
 2386SOL    HW1 7814   1.576   3.905   6.994
 2386SOL    HW2 7815   1.591   3.884   7.155
 2387SOL     OW 7816   0.122   4.367   6.149
 2387SOL    HW1 7817   0.077   4.279   6.166
 2387SOL    HW2 7818   0.121   4.421   6.233
 2388SOL     OW 7819   0.027   5.320   5.703
 2388SOL    HW1 7820   0.008   5.224   5.724
 2388SOL    HW2 7821  -0.006   5.378   5.778
 2389SOL     OW 7822   1.689   4.646   6.198
 2389SOL    HW1 7823   1.784   4.617   6.206
 2389SOL    HW2 7824   1.681   4.711   6.123
 2390SOL     OW 7825   1.641   4.832   6.018
 2390SOL    HW1 7826   1.727   4.834   5.966
 2390SOL    HW2 7827   1.655   4.879   6.106
 2391SOL     OW 7828   0.113   4.461   7.183
 2391SOL    HW1 7829   0.201   4.448   7.228
 2391SOL    HW2 7830   0.100   4.558   7.161
 2392SOL     OW 7831   0.613   5.089   6.312
 2392SOL    HW1 7832   0.564   5.002   6.321
 2392SOL    HW2 7833   0.590   5.132   6.225
 2393SOL     OW 7834   1.293   4.952   7.009
 2393SOL    HW1 7835   1.330   4.879   6.951
 2393SOL    HW2 7836   1.345   4.957   7.094
 2394SOL     OW 7837   0.809   3.728   6.088
 2394SOL    HW1 7838   0.849   3.819   6.079
 2394SOL    HW2 7839   0.709   3.736   6.094
 2395SOL     OW 7840   0.197   4.700   6.850
 2395SOL    HW1 7841   0.286   4.655   6.836
 2395SOL    HW2 7842   0.124   4.635   6.831
 2396SOL     OW 7843   1.525   4.723   5.776
 2396SOL    HW1 7844   1.462   4.647   5.789
 2396SOL    HW2 7845   1.573   4.741   5.862
 2397SOL     OW 7846   0.317   3.975   7.387
 2397SOL    HW1 7847   0.388   4.046   7.393
 2397SOL    HW2 7848   0.229   4.014   7.415
 2398SOL     OW 7849   1.466   5.141   6.539
 2398SOL    HW1 7850   1.407   5.147   6.619
 2398SOL    HW2 7851   1.451   5.053   6.493
 2399SOL     OW 7852   0.598   4.453   5.856
 2399SOL    HW1 7853   0.622   4.522   5.788
 2399SOL    HW2 7854   0.520   4.486   5.910
 2400SOL     OW 7855   1.281   4.069   6.530
 2400SOL    HW1 7856   1.195   4.019   6.517
 2400SOL    HW2 7857   1.343   4.015   6.586
 2401SOL     OW 7858   0.807   4.329   7.051
 2401SOL    HW1 7859   0.760   4.326   7.140
 2401SOL    HW2 7860   0.756   4.274   6.985
 2402SOL     OW 7861   1.394   4.193   7.260
 2402SOL    HW1 7862   1.374   4.236   7.348
 2402SOL    HW2 7863   1.472   4.131   7.269
 2403SOL     OW 7864   0.973   4.614   7.158
 2403SOL    HW1 7865   1.019   4.530   7.129
 2403SOL    HW2 7866   0.917   4.648   7.083
 2404SOL     OW 7867   0.991   4.134   6.828
 2404SOL    HW1 7868   0.914   4.168   6.882
 2404SOL    HW2 7869   0.957   4.083   6.749
 2405SOL     OW 7870   1.041   4.425   6.015
 2405SOL    HW1 7871   1.067   4.421   6.111
 2405SOL    HW2 7872   0.956   4.374   6.001
 2406SOL     OW 7873   0.076   4.535   6.375
 2406SOL    HW1 7874   0.175   4.523   6.384
 2406SOL    HW2 7875   0.052   4.630   6.396
 2407SOL     OW 7876   0.865   4.072   5.781
 2407SOL    HW1 7877   0.924   4.135   5.732
 2407SOL    HW2 7878   0.884   3.978   5.752
 2408SOL     OW 7879   1.719   4.309   7.417
 2408SOL    HW1 7880   1.693   4.398   7.381
 2408SOL    HW2 7881   1.717   4.241   7.344
 2409SOL     OW 7882   1.362   4.868   6.131
 2409SOL    HW1 7883   1.445   4.839   6.083
 2409SOL    HW2 7884   1.313   4.935   6.075
 2410SOL     OW 7885   0.550   3.920   6.471
 2410SOL    HW1 7886   0.545   3.915   6.571
 2410SOL    HW2 7887   0.552   4.016   6.442
 2411SOL     OW 7888   1.008   5.180   6.063
 2411SOL    HW1 7889   0.962   5.252   6.011
 2411SOL    HW2 7890   1.004   5.200   6.161
 2412SOL     OW 7891   1.795   4.790   6.459
 2412SOL    HW1 7892   1.733   4.775   6.383
 2412SOL    HW2 7893   1.743   4.801   6.544
 2413SOL     OW 7894   1.227   5.274   7.092
 2413SOL    HW1 7895   1.233   5.197   7.156
 2413SOL    HW2 7896   1.175   5.248   7.012
 2414SOL     OW 7897   0.321   4.667   5.828
 2414SOL    HW1 7898   0.403   4.706   5.786
 2414SOL    HW2 7899   0.294   4.585   5.779
 2415SOL     OW 7900   1.458   4.459   6.314
 2415SOL    HW1 7901   1.453   4.394   6.389
 2415SOL    HW2 7902   1.538   4.518   6.327
 2416SOL     OW 7903   0.461   4.990   7.313
 2416SOL    HW1 7904   0.411   4.991   7.227
 2416SOL    HW2 7905   0.398   4.972   7.389
 2417SOL     OW 7906   1.111   5.500   5.823
 2417SOL    HW1 7907   1.051   5.438   5.873
 2417SOL    HW2 7908   1.142   5.456   5.738
 2418SOL     OW 7909   0.202   4.009   7.084
 2418SOL    HW1 7910   0.122   4.069   7.071
 2418SOL    HW2 7911   0.192   3.960   7.170
 2419SOL     OW 7912   1.632   5.101   5.667
 2419SOL    HW1 7913   1.600   5.195   5.657
 2419SOL    HW2 7914   1.556   5.038   5.655
 2420SOL     OW 7915   1.400   3.831   6.012
 2420SOL    HW1 7916   1.376   3.794   5.922
 2420SOL    HW2 7917   1.499   3.847   6.016
 2421SOL     OW 7918   0.382   4.424   6.066
 2421SOL    HW1 7919   0.427   4.334   6.063
 2421SOL    HW2 7920   0.288   4.413   6.099
 2422SOL     OW 7921   1.547   3.946   7.315
 2422SOL    HW1 7922   1.542   3.983   7.407
 2422SOL    HW2 7923   1.475   3.877   7.303
 2423SOL     OW 7924   0.614   3.846   5.703
 2423SOL    HW1 7925   0.712   3.824   5.710
 2423SOL    HW2 7926   0.583   3.829   5.610
 2424SOL     OW 7927   0.781   3.988   7.335
 2424SOL    HW1 7928   0.848   3.927   7.378
 2424SOL    HW2 7929   0.708   4.007   7.400
 2425SOL     OW 7930   1.351   4.314   7.019
 2425SOL    HW1 7931   1.379   4.271   7.104
 2425SOL    HW2 7932   1.376   4.410   7.020
 2426SOL     OW 7933   0.803   5.126   6.510
 2426SOL    HW1 7934   0.893   5.140   6.468
 2426SOL    HW2 7935   0.732   5.128   6.439
 2427SOL     OW 7936   0.922   4.227   6.485
 2427SOL    HW1 7937   0.897   4.218   6.389
 2427SOL    HW2 7938   0.970   4.145   6.516
 2428SOL     OW 7939   0.539   3.788   6.098
 2428SOL    HW1 7940   0.458   3.789   6.156
 2428SOL    HW2 7941   0.542   3.871   6.043
 2429SOL     OW 7942   1.434   4.912   5.627
 2429SOL    HW1 7943   1.466   4.836   5.684
 2429SOL    HW2 7944   1.342   4.939   5.657
 2430SOL     OW 7945   0.297   3.759   5.757
 2430SOL    HW1 7946   0.346   3.843   5.736
 2430SOL    HW2 7947   0.359   3.694   5.802
 2431SOL     OW 7948   0.935   3.960   6.066
 2431SOL    HW1 7949   0.887   4.001   5.988
 2431SOL    HW2 7950   1.034   3.958   6.047
 2432SOL     OW 7951   1.076   4.407   7.050
 2432SOL    HW1 7952   0.996   4.346   7.053
 2432SOL    HW2 7953   1.157   4.354   7.026
 2433SOL     OW 7954   1.227   5.294   6.379
 2433SOL    HW1 7955   1.248   5.368   6.314
 2433SOL    HW2 7956   1.295   5.294   6.452
 2434SOL     OW 7957   0.459   4.876   6.327
 2434SOL    HW1 7958   0.388   4.849   6.392
 2434SOL    HW2 7959   0.433   4.848   6.234
 2435SOL     OW 7960   1.032   4.273   5.602
 2435SOL    HW1 7961   0.991   4.355   5.563
 2435SOL    HW2 7962   1.096   4.299   5.675
 2436SOL     OW 7963   0.078   4.280   6.972
 2436SOL    HW1 7964   0.170   4.279   6.931
 2436SOL    HW2 7965   0.072   4.354   7.039
 2437SOL     OW 7966   0.561   3.946   6.733
 2437SOL    HW1 7967   0.599   3.862   6.770
 2437SOL    HW2 7968   0.473   3.965   6.777
 2438SOL     OW 7969   0.866   4.178   6.228
 2438SOL    HW1 7970   0.834   4.250   6.166
 2438SOL    HW2 7971   0.890   4.097   6.175
 2439SOL     OW 7972   1.017   3.763   6.339
 2439SOL    HW1 7973   0.945   3.768   6.270
 2439SOL    HW2 7974   0.993   3.694   6.408
 2440SOL     OW 7975   1.429   4.897   6.453
 2440SOL    HW1 7976   1.374   4.813   6.446
 2440SOL    HW2 7977   1.455   4.926   6.361
 2441SOL     OW 7978   1.466   4.314   6.578
 2441SOL    HW1 7979   1.436   4.219   6.585
 2441SOL    HW2 7980   1.539   4.330   6.644
 2442SOL     OW 7981   1.857   4.557   5.963
 2442SOL    HW1 7982   1.899   4.493   6.027
 2442SOL    HW2 7983   1.819   4.506   5.885
 2443SOL     OW 7984   0.488   5.109   5.760
 2443SOL    HW1 7985   0.401   5.094   5.807
 2443SOL    HW2 7986   0.471   5.135   5.665
 2444SOL     OW 7987   1.664   5.004   6.243
 2444SOL    HW1 7988   1.763   5.012   6.257
 2444SOL    HW2 7989   1.619   5.088   6.274
 2445SOL     OW 7990   1.390   4.299   5.664
 2445SOL    HW1 7991   1.336   4.278   5.745
 2445SOL    HW2 7992   1.481   4.258   5.673
 2446SOL     OW 7993   0.527   3.980   5.914
 2446SOL    HW1 7994   0.554   3.921   5.839
 2446SOL    HW2 7995   0.527   4.075   5.883
 2447SOL     OW 7996   1.754   4.947   7.174
 2447SOL    HW1 7997   1.845   4.908   7.161
 2447SOL    HW2 7998   1.762   5.043   7.198
 2448SOL     OW 7999   1.064   5.071   6.926
 2448SOL    HW1 8000   0.984   5.048   6.981
 2448SOL    HW2 8001   1.147   5.045   6.975
 2449SOL     OW 8002   1.111   4.919   6.686
 2449SOL    HW1 8003   1.071   4.963   6.767
 2449SOL    HW2 8004   1.070   4.956   6.603
 2450SOL     OW 8005   1.638   4.823   6.665
 2450SOL    HW1 8006   1.643   4.904   6.724
 2450SOL    HW2 8007   1.552   4.825   6.614
 2451SOL     OW 8008   0.915   3.813   6.988
 2451SOL    HW1 8009   0.940   3.793   6.893
 2451SOL    HW2 8010   0.987   3.869   7.030
 2452SOL     OW 8011   0.980   4.840   7.305
 2452SOL    HW1 8012   0.881   4.846   7.315
 2452SOL    HW2 8013   1.003   4.760   7.249
 2453SOL     OW 8014   0.705   4.774   5.954
 2453SOL    HW1 8015   0.691   4.781   6.053
 2453SOL    HW2 8016   0.789   4.723   5.936
 2454SOL     OW 8017   0.410   4.537   6.837
 2454SOL    HW1 8018   0.496   4.549   6.887
 2454SOL    HW2 8019   0.368   4.450   6.864
 2455SOL     OW 8020   1.274   4.110   6.848
 2455SOL    HW1 8021   1.295   4.184   6.912
 2455SOL    HW2 8022   1.185   4.127   6.805
 2456SOL     OW 8023   0.064   5.288   6.917
 2456SOL    HW1 8024   0.018   5.370   6.883
 2456SOL    HW2 8025   0.162   5.307   6.926
 2457SOL     OW 8026   0.367   4.824   6.087
 2457SOL    HW1 8027   0.360   4.907   6.031
 2457SOL    HW2 8028   0.371   4.744   6.027
 2458SOL     OW 8029   0.566   4.261   6.451
 2458SOL    HW1 8030   0.578   4.327   6.377
 2458SOL    HW2 8031   0.612   4.295   6.534
 2459SOL     OW 8032   1.252   5.072   5.974
 2459SOL    HW1 8033   1.302   5.149   6.014
 2459SOL    HW2 8034   1.157   5.074   6.006
 2460SOL     OW 8035   1.272   5.169   6.728
 2460SOL    HW1 8036   1.319   5.182   6.815
 2460SOL    HW2 8037   1.206   5.095   6.737
 2461SOL     OW 8038   1.582   4.363   6.058
 2461SOL    HW1 8039   1.551   4.424   6.131
 2461SOL    HW2 8040   1.632   4.415   5.989
 2462SOL     OW 8041   0.354   5.234   6.915
 2462SOL    HW1 8042   0.333   5.190   6.828
 2462SOL    HW2 8043   0.451   5.260   6.918
 2463SOL     OW 8044   0.402   4.475   7.184
 2463SOL    HW1 8045   0.470   4.530   7.137
 2463SOL    HW2 8046   0.442   4.387   7.211
 2464SOL     OW 8047   1.587   4.503   7.256
 2464SOL    HW1 8048   1.495   4.541   7.251
 2464SOL    HW2 8049   1.647   4.550   7.191
 2465SOL     OW 8050   1.013   3.829   7.356
 2465SOL    HW1 8051   1.019   3.914   7.304
 2465SOL    HW2 8052   1.045   3.753   7.299
 2466SOL     OW 8053   0.504   3.774   7.326
 2466SOL    HW1 8054   0.462   3.717   7.256
 2466SOL    HW2 8055   0.438   3.843   7.358
 2467SOL     OW 8056   0.573   4.594   6.615
 2467SOL    HW1 8057   0.617   4.683   6.606
 2467SOL    HW2 8058   0.510   4.594   6.692
 2468SOL     OW 8059   1.360   4.586   6.631
 2468SOL    HW1 8060   1.285   4.586   6.565
 2468SOL    HW2 8061   1.397   4.494   6.640
 2469SOL     OW 8062   1.209   4.249   5.861
 2469SOL    HW1 8063   1.222   4.165   5.915
 2469SOL    HW2 8064   1.180   4.323   5.921
 2470SOL     OW 8065   0.307   3.937   6.817
 2470SOL    HW1 8066   0.284   3.974   6.907
 2470SOL    HW2 8067   0.277   3.842   6.811
 2471SOL     OW 8068   0.037   5.034   6.868
 2471SOL    HW1 8069   0.090   4.985   6.936
 2471SOL    HW2 8070   0.059   5.132   6.873
 2472SOL     OW 8071   0.732   4.358   6.650
 2472SOL    HW1 8072   0.791   4.332   6.574
 2472SOL    HW2 8073   0.704   4.454   6.639
 2473SOL     OW 8074   1.728   4.659   7.440
 2473SOL    HW1 8075   1.682   4.652   7.351
 2473SOL    HW2 8076   1.666   4.703   7.506
 2474SOL     OW 8077   0.307   3.787   6.204
 2474SOL    HW1 8078   0.296   3.881   6.237
 2474SOL    HW2 8079   0.302   3.724   6.281
 2475SOL     OW 8080   1.622   4.091   5.960
 2475SOL    HW1 8081   1.624   4.015   6.024
 2475SOL    HW2 8082   1.574   4.168   6.000
 2476SOL     OW 8083   1.023   4.490   6.552
 2476SOL    HW1 8084   1.038   4.511   6.648
 2476SOL    HW2 8085   0.993   4.395   6.543
 2477SOL     OW 8086   1.859   5.242   7.191
 2477SOL    HW1 8087   1.873   5.269   7.096
 2477SOL    HW2 8088   1.942   5.264   7.244
 2478SOL     OW 8089   0.350   4.622   7.390
 2478SOL    HW1 8090   0.426   4.666   7.438
 2478SOL    HW2 8091   0.385   4.575   7.308
 2479SOL     OW 8092   1.540   3.998   5.711
 2479SOL    HW1 8093   1.479   3.923   5.734
 2479SOL    HW2 8094   1.562   4.050   5.794
 2480SOL     OW 8095   1.303   4.562   5.628
 2480SOL    HW1 8096   1.337   4.469   5.643
 2480SOL    HW2 8097   1.321   4.589   5.533
 2481SOL     OW 8098   1.068   5.057   6.435
 2481SOL    HW1 8099   1.075   4.973   6.380
 2481SOL    HW2 8100   1.130   5.126   6.399
 2482SOL     OW 8101   0.319   4.534   6.535
 2482SOL    HW1 8102   0.412   4.570   6.540
 2482SOL    HW2 8103   0.313   4.449   6.587
 2483SOL     OW 8104   0.339   4.233   6.592
 2483SOL    HW1 8105   0.287   4.150   6.575
 2483SOL    HW2 8106   0.416   4.238   6.528
 2484SOL     OW 8107   1.138   4.104   7.264
 2484SOL    HW1 8108   1.093   4.167   7.328
 2484SOL    HW2 8109   1.231   4.135   7.247
 2485SOL     OW 8110   1.160   3.931   7.063
 2485SOL    HW1 8111   1.160   3.995   7.140
 2485SOL    HW2 8112   1.188   3.979   6.980
 2486SOL     OW 8113   0.008   5.050   5.786
 2486SOL    HW1 8114  -0.085   5.071   5.755
 2486SOL    HW2 8115   0.018   4.951   5.799
 2487SOL     OW 8116   1.002   4.520   6.824
 2487SOL    HW1 8117   1.043   4.488   6.910
 2487SOL    HW2 8118   0.906   4.493   6.821
 2488SOL     OW 8119   0.040   4.268   6.700
 2488SOL    HW1 8120   0.125   4.235   6.659
 2488SOL    HW2 8121   0.053   4.283   6.798
 2489SOL     OW 8122   0.189   4.244   7.308
 2489SOL    HW1 8123   0.248   4.204   7.238
 2489SOL    HW2 8124   0.131   4.315   7.267
 2490SOL     OW 8125   1.369   4.674   7.246
 2490SOL    HW1 8126   1.408   4.763   7.266
 2490SOL    HW2 8127   1.379   4.654   7.149
 2491SOL     OW 8128   0.815   4.296   5.911
 2491SOL    HW1 8129   0.822   4.207   5.865
 2491SOL    HW2 8130   0.721   4.330   5.903
 2492SOL     OW 8131   1.657   4.328   6.792
 2492SOL    HW1 8132   1.619   4.259   6.854
 2492SOL    HW2 8133   1.739   4.292   6.748
 2493SOL     OW 8134   0.252   5.288   7.330
 2493SOL    HW1 8135   0.222   5.345   7.406
 2493SOL    HW2 8136   0.245   5.191   7.356
 2494SOL     OW 8137   0.671   4.188   6.855
 2494SOL    HW1 8138   0.637   4.099   6.825
 2494SOL    HW2 8139   0.697   4.242   6.775
 2495SOL     OW 8140   0.473   4.224   5.777
 2495SOL    HW1 8141   0.534   4.304   5.781
 2495SOL    HW2 8142   0.378   4.255   5.784
 2496SOL     OW 8143   0.159   4.861   7.052
 2496SOL    HW1 8144   0.181   4.800   7.128
 2496SOL    HW2 8145   0.169   4.812   6.966
 2497SOL     OW 8146   1.347   4.783   6.820
 2497SOL    HW1 8147   1.371   4.720   6.746
 2497SOL    HW2 8148   1.257   4.823   6.802
 2498SOL     OW 8149   1.302   4.579   5.895
 2498SOL    HW1 8150   1.216   4.548   5.937
 2498SOL    HW2 8151   1.298   4.565   5.796
 2499SOL     OW 8152   0.083   4.982   6.608
 2499SOL    HW1 8153   0.078   4.981   6.708
 2499SOL    HW2 8154   0.000   4.941   6.570
 2500SOL     OW 8155   0.688   5.386   7.302
 2500SOL    HW1 8156   0.632   5.467   7.311
 2500SOL    HW2 8157   0.740   5.390   7.216
 2501SOL     OW 8158   1.726   3.859   6.109
 2501SOL    HW1 8159   1.799   3.842   6.042
 2501SOL    HW2 8160   1.695   3.772   6.147
 2502SOL     OW 8161   1.280   4.651   6.258
 2502SOL    HW1 8162   1.340   4.570   6.260
 2502SOL    HW2 8163   1.320   4.720   6.198
 2503SOL     OW 8164   0.830   4.997   7.008
 2503SOL    HW1 8165   0.825   5.030   7.103
 2503SOL    HW2 8166   0.744   5.016   6.962
 2504SOL     OW 8167   1.841   3.899   6.549
 2504SOL    HW1 8168   1.880   3.814   6.513
 2504SOL    HW2 8169   1.743   3.901   6.530
 2505SOL     OW 8170   0.263   4.050   6.306
 2505SOL    HW1 8171   0.184   4.101   6.272
 2505SOL    HW2 8172   0.254   4.035   6.404
 2506SOL     OW 8173   0.822   4.726   6.958
 2506SOL    HW1 8174   0.862   4.725   6.866
 2506SOL    HW2 8175   0.832   4.818   6.998
 2507SOL     OW 8176   0.916   4.634   5.877
 2507SOL    HW1 8177   0.979   4.672   5.809
 2507SOL    HW2 8178   0.956   4.551   5.916
 2508SOL     OW 8179   0.372   5.012   7.076
 2508SOL    HW1 8180   0.359   5.105   7.042
 2508SOL    HW2 8181   0.288   4.960   7.063
 2509SOL     OW 8182   1.614   5.016   6.875
 2509SOL    HW1 8183   1.674   5.019   6.955
 2509SOL    HW2 8184   1.539   5.080   6.888
 2510SOL     OW 8185   1.039   4.822   6.282
 2510SOL    HW1 8186   0.969   4.775   6.336
 2510SOL    HW2 8187   1.098   4.754   6.239
 2511SOL     OW 8188   1.014   3.960   6.557
 2511SOL    HW1 8189   1.006   3.924   6.464
 2511SOL    HW2 8190   1.012   3.884   6.622
 2512SOL     OW 8191   1.709   4.109   6.967
 2512SOL    HW1 8192   1.782   4.178   6.971
 2512SOL    HW2 8193   1.737   4.034   6.908
 2513SOL     OW 8194   0.255   5.072   5.876
 2513SOL    HW1 8195   0.159   5.073   5.849
 2513SOL    HW2 8196   0.267   5.125   5.960
 2514SOL     OW 8197   0.105   4.737   7.312
 2514SOL    HW1 8198   0.028   4.704   7.366
 2514SOL    HW2 8199   0.190   4.707   7.354
 2515SOL     OW 8200   0.672   3.927   7.075
 2515SOL    HW1 8201   0.762   3.911   7.035
 2515SOL    HW2 8202   0.680   3.932   7.174
 2516SOL     OW 8203   0.075   4.069   5.619
 2516SOL    HW1 8204  -0.017   4.041   5.590
 2516SOL    HW2 8205   0.106   4.146   5.563
 2517SOL     OW 8206   1.440   4.580   6.984
 2517SOL    HW1 8207   1.383   4.632   6.921
 2517SOL    HW2 8208   1.536   4.592   6.960
 2518SOL     OW 8209   0.072   3.890   5.904
 2518SOL    HW1 8210   0.055   3.973   5.850
 2518SOL    HW2 8211   0.162   3.853   5.882
 2519SOL     OW 8212   1.183   5.059   5.705
 2519SOL    HW1 8213   1.084   5.048   5.707
 2519SOL    HW2 8214   1.217   5.074   5.798
 2520SOL     OW 8215   0.613   4.566   7.017
 2520SOL    HW1 8216   0.669   4.647   7.000
 2520SOL    HW2 8217   0.672   4.486   7.020
 2521SOL     OW 8218   0.716   4.289   7.294
 2521SOL    HW1 8219   0.735   4.354   7.368
 2521SOL    HW2 8220   0.776   4.209   7.303
 2522SOL     OW 8221   1.450   4.944   7.219
 2522SOL    HW1 8222   1.441   4.934   7.318
 2522SOL    HW2 8223   1.546   4.937   7.193
 2523SOL     OW 8224   1.674   4.607   6.840
 2523SOL    HW1 8225   1.647   4.518   6.803
 2523SOL    HW2 8226   1.675   4.675   6.767
 2524SOL     OW 8227   1.225   4.049   6.035
 2524SOL    HW1 8228   1.290   3.975   6.024
 2524SOL    HW2 8229   1.245   4.099   6.119
 2525SOL     OW 8230   0.594   4.469   6.238
 2525SOL    HW1 8231   0.644   4.554   6.219
 2525SOL    HW2 8232   0.506   4.471   6.190
 2526SOL     OW 8233   1.777   4.066   7.228
 2526SOL    HW1 8234   1.760   4.097   7.134
 2526SOL    HW2 8235   1.693   4.029   7.266
 2527SOL     OW 8236   1.730   4.658   7.103
 2527SOL    HW1 8237   1.768   4.749   7.118
 2527SOL    HW2 8238   1.722   4.641   7.004
 2528SOL     OW 8239   0.859   5.098   5.602
 2528SOL    HW1 8240   0.813   5.113   5.690
 2528SOL    HW2 8241   0.903   5.183   5.572
 2529SOL     OW 8242   0.859   4.680   6.447
 2529SOL    HW1 8243   0.913   4.611   6.495
 2529SOL    HW2 8244   0.827   4.749   6.513
 2530SOL     OW 8245   1.083   4.708   5.673
 2530SOL    HW1 8246   1.060   4.761   5.591
 2530SOL    HW2 8247   1.164   4.652   5.654
 2531SOL     OW 8248   0.221   5.038   7.430
 2531SOL    HW1 8249   0.156   4.965   7.409
 2531SOL    HW2 8250   0.225   5.052   7.528
 2532SOL     OW 8251   0.079   4.964   6.239
 2532SOL    HW1 8252   0.078   4.917   6.327
 2532SOL    HW2 8253   0.161   4.936   6.188
 2533SOL     OW 8254   0.672   5.115   7.210
 2533SOL    HW1 8255   0.594   5.065   7.248
 2533SOL    HW2 8256   0.669   5.210   7.241
 2534SOL     OW 8257   1.824   3.916   6.813
 2534SOL    HW1 8258   1.820   3.826   6.857
 2534SOL    HW2 8259   1.827   3.905   6.714
 2535SOL     OW 8260   0.428   4.148   6.106
 2535SOL    HW1 8261   0.458   4.076   6.044
 2535SOL    HW2 8262   0.389   4.108   6.189
 2536SOL     OW 8263   1.705   5.211   6.690
 2536SOL    HW1 8264   1.612   5.186   6.663
 2536SOL    HW2 8265   1.731   5.161   6.772
 2537SOL     OW 8266   0.317   4.271   6.866
 2537SOL    HW1 8267   0.355   4.212   6.938
 2537SOL    HW2 8268   0.357   4.245   6.778
 2538SOL     OW 8269   1.424   3.938   6.698
 2538SOL    HW1 8270   1.476   3.873   6.753
 2538SOL    HW2 8271   1.375   4.001   6.759
 2539SOL     OW 8272   1.001   3.758   6.740
 2539SOL    HW1 8273   0.938   3.686   6.709
 2539SOL    HW2 8274   1.094   3.722   6.740
 2540SOL     OW 8275   0.770   5.054   5.887
 2540SOL    HW1 8276   0.724   4.967   5.904
 2540SOL    HW2 8277   0.861   5.051   5.928
 2541SOL     OW 8278   0.618   5.291   6.870
 2541SOL    HW1 8279   0.613   5.373   6.927
 2541SOL    HW2 8280   0.707   5.288   6.825
 2542SOL     OW 8281   1.352   3.776   5.754
 2542SOL    HW1 8282   1.387   3.735   5.670
 2542SOL    HW2 8283   1.262   3.738   5.774
 2543SOL     OW 8284   1.300   4.177   6.277
 2543SOL    HW1 8285   1.241   4.257   6.281
 2543SOL    HW2 8286   1.315   4.142   6.370
 2544SOL     OW 8287   1.593   3.945   6.468
 2544SOL    HW1 8288   1.509   3.944   6.522
 2544SOL    HW2 8289   1.595   4.028   6.412
 2545SOL     OW 8290   0.039   4.801   5.886
 2545SOL    HW1 8291   0.138   4.790   5.877
 2545SOL    HW2 8292  -0.001   4.715   5.918
 2546SOL     OW 8293   0.230   4.352   7.561
 2546SOL    HW1 8294   0.137   4.350   7.598
 2546SOL    HW2 8295   0.231   4.313   7.469
 2547SOL     OW 8296   1.755   4.331   7.679
 2547SOL    HW1 8297   1.743   4.318   7.580
 2547SOL    HW2 8298   1.725   4.250   7.728
 2548SOL     OW 8299   0.231   5.437   7.931
 2548SOL    HW1 8300   0.265   5.514   7.985
 2548SOL    HW2 8301   0.275   5.437   7.841
 2549SOL     OW 8302   0.230   5.158   7.986
 2549SOL    HW1 8303   0.204   5.254   7.986
 2549SOL    HW2 8304   0.159   5.104   8.031
 2550SOL     OW 8305   0.606   4.688   7.571
 2550SOL    HW1 8306   0.613   4.772   7.517
 2550SOL    HW2 8307   0.652   4.701   7.659
 2551SOL     OW 8308   0.027   5.320   7.565
 2551SOL    HW1 8309   0.008   5.224   7.586
 2551SOL    HW2 8310  -0.006   5.378   7.640
 2552SOL     OW 8311   1.689   4.646   8.060
 2552SOL    HW1 8312   1.784   4.617   8.068
 2552SOL    HW2 8313   1.681   4.711   7.985
 2553SOL     OW 8314   1.641   4.832   7.880
 2553SOL    HW1 8315   1.727   4.834   7.828
 2553SOL    HW2 8316   1.655   4.879   7.968
 2554SOL     OW 8317   0.809   3.728   7.950
 2554SOL    HW1 8318   0.849   3.819   7.941
 2554SOL    HW2 8319   0.709   3.736   7.956
 2555SOL     OW 8320   1.525   4.723   7.638
 2555SOL    HW1 8321   1.462   4.647   7.651
 2555SOL    HW2 8322   1.573   4.741   7.724
 2556SOL     OW 8323   0.598   4.453   7.718
 2556SOL    HW1 8324   0.622   4.522   7.650
 2556SOL    HW2 8325   0.520   4.486   7.772
 2557SOL     OW 8326   0.076   4.535   8.237
 2557SOL    HW1 8327   0.175   4.523   8.246
 2557SOL    HW2 8328   0.052   4.630   8.258
 2558SOL     OW 8329   0.865   4.072   7.643
 2558SOL    HW1 8330   0.924   4.135   7.594
 2558SOL    HW2 8331   0.884   3.978   7.614
 2559SOL     OW 8332   0.321   4.667   7.690
 2559SOL    HW1 8333   0.403   4.706   7.648
 2559SOL    HW2 8334   0.294   4.585   7.641
 2560SOL     OW 8335   1.111   5.500   7.685
 2560SOL    HW1 8336   1.051   5.438   7.735
 2560SOL    HW2 8337   1.142   5.456   7.600
 2561SOL     OW 8338   1.632   5.101   7.529
 2561SOL    HW1 8339   1.600   5.195   7.519
 2561SOL    HW2 8340   1.556   5.038   7.517
 2562SOL     OW 8341   1.400   3.831   7.874
 2562SOL    HW1 8342   1.376   3.794   7.784
 2562SOL    HW2 8343   1.499   3.847   7.878
 2563SOL     OW 8344   0.382   4.424   7.928
 2563SOL    HW1 8345   0.427   4.334   7.925
 2563SOL    HW2 8346   0.288   4.413   7.961
 2564SOL     OW 8347   0.614   3.846   7.565
 2564SOL    HW1 8348   0.712   3.824   7.572
 2564SOL    HW2 8349   0.583   3.829   7.472
 2565SOL     OW 8350   0.539   3.788   7.960
 2565SOL    HW1 8351   0.458   3.789   8.018
 2565SOL    HW2 8352   0.542   3.871   7.905
 2566SOL     OW 8353   1.434   4.912   7.489
 2566SOL    HW1 8354   1.466   4.836   7.546
 2566SOL    HW2 8355   1.342   4.939   7.519
 2567SOL     OW 8356   0.297   3.759   7.619
 2567SOL    HW1 8357   0.346   3.843   7.598
 2567SOL    HW2 8358   0.359   3.694   7.664
 2568SOL     OW 8359   0.935   3.960   7.928
 2568SOL    HW1 8360   0.887   4.001   7.850
 2568SOL    HW2 8361   1.034   3.958   7.909
 2569SOL     OW 8362   0.459   4.876   8.189
 2569SOL    HW1 8363   0.388   4.849   8.254
 2569SOL    HW2 8364   0.433   4.848   8.096
 2570SOL     OW 8365   1.032   4.273   7.464
 2570SOL    HW1 8366   0.991   4.355   7.425
 2570SOL    HW2 8367   1.096   4.299   7.537
 2571SOL     OW 8368   1.857   4.557   7.825
 2571SOL    HW1 8369   1.899   4.493   7.889
 2571SOL    HW2 8370   1.819   4.506   7.747
 2572SOL     OW 8371   0.488   5.109   7.622
 2572SOL    HW1 8372   0.401   5.094   7.669
 2572SOL    HW2 8373   0.471   5.135   7.527
 2573SOL     OW 8374   1.390   4.299   7.526
 2573SOL    HW1 8375   1.336   4.278   7.607
 2573SOL    HW2 8376   1.481   4.258   7.535
 2574SOL     OW 8377   0.527   3.980   7.776
 2574SOL    HW1 8378   0.554   3.921   7.701
 2574SOL    HW2 8379   0.527   4.075   7.745
 2575SOL     OW 8380   0.705   4.774   7.816
 2575SOL    HW1 8381   0.691   4.781   7.915
 2575SOL    HW2 8382   0.789   4.723   7.798
 2576SOL     OW 8383   0.367   4.824   7.949
 2576SOL    HW1 8384   0.360   4.907   7.893
 2576SOL    HW2 8385   0.371   4.744   7.889
 2577SOL     OW 8386   1.252   5.072   7.836
 2577SOL    HW1 8387   1.302   5.149   7.876
 2577SOL    HW2 8388   1.157   5.074   7.868
 2578SOL     OW 8389   1.582   4.363   7.920
 2578SOL    HW1 8390   1.551   4.424   7.993
 2578SOL    HW2 8391   1.632   4.415   7.851
 2579SOL     OW 8392   1.209   4.249   7.723
 2579SOL    HW1 8393   1.222   4.165   7.777
 2579SOL    HW2 8394   1.180   4.323   7.783
 2580SOL     OW 8395   1.622   4.091   7.822
 2580SOL    HW1 8396   1.624   4.015   7.886
 2580SOL    HW2 8397   1.574   4.168   7.862
 2581SOL     OW 8398   1.540   3.998   7.573
 2581SOL    HW1 8399   1.479   3.923   7.596
 2581SOL    HW2 8400   1.562   4.050   7.656
 2582SOL     OW 8401   1.303   4.562   7.490
 2582SOL    HW1 8402   1.337   4.469   7.505
 2582SOL    HW2 8403   1.321   4.589   7.395
 2583SOL     OW 8404   0.008   5.050   7.648
 2583SOL    HW1 8405  -0.085   5.071   7.617
 2583SOL    HW2 8406   0.018   4.951   7.661
 2584SOL     OW 8407   0.815   4.296   7.773
 2584SOL    HW1 8408   0.822   4.207   7.727
 2584SOL    HW2 8409   0.721   4.330   7.765
 2585SOL     OW 8410   0.473   4.224   7.639
 2585SOL    HW1 8411   0.534   4.304   7.643
 2585SOL    HW2 8412   0.378   4.255   7.646
 2586SOL     OW 8413   1.302   4.579   7.757
 2586SOL    HW1 8414   1.216   4.548   7.799
 2586SOL    HW2 8415   1.298   4.565   7.658
 2587SOL     OW 8416   1.726   3.859   7.971
 2587SOL    HW1 8417   1.799   3.842   7.904
 2587SOL    HW2 8418   1.695   3.772   8.009
 2588SOL     OW 8419   0.916   4.634   7.739
 2588SOL    HW1 8420   0.979   4.672   7.671
 2588SOL    HW2 8421   0.956   4.551   7.778
 2589SOL     OW 8422   0.255   5.072   7.738
 2589SOL    HW1 8423   0.159   5.073   7.711
 2589SOL    HW2 8424   0.267   5.125   7.822
 2590SOL     OW 8425   0.075   4.069   7.481
 2590SOL    HW1 8426  -0.017   4.041   7.452
 2590SOL    HW2 8427   0.106   4.146   7.425
 2591SOL     OW 8428   0.072   3.890   7.766
 2591SOL    HW1 8429   0.055   3.973   7.712
 2591SOL    HW2 8430   0.162   3.853   7.744
 2592SOL     OW 8431   1.183   5.059   7.567
 2592SOL    HW1 8432   1.084   5.048   7.569
 2592SOL    HW2 8433   1.217   5.074   7.660
 2593SOL     OW 8434   1.225   4.049   7.897
 2593SOL    HW1 8435   1.290   3.975   7.886
 2593SOL    HW2 8436   1.245   4.099   7.981
 2594SOL     OW 8437   0.594   4.469   8.100
 2594SOL    HW1 8438   0.644   4.554   8.081
 2594SOL    HW2 8439   0.506   4.471   8.052
 2595SOL     OW 8440   0.859   5.098   7.464
 2595SOL    HW1 8441   0.813   5.113   7.552
 2595SOL    HW2 8442   0.903   5.183   7.434
 2596SOL     OW 8443   1.083   4.708   7.535
 2596SOL    HW1 8444   1.060   4.761   7.453
 2596SOL    HW2 8445   1.164   4.652   7.516
 2597SOL     OW 8446   0.428   4.148   7.968
 2597SOL    HW1 8447   0.458   4.076   7.906
 2597SOL    HW2 8448   0.389   4.108   8.051
 2598SOL     OW 8449   0.770   5.054   7.749
 2598SOL    HW1 8450   0.724   4.967   7.766
 2598SOL    HW2 8451   0.861   5.051   7.790
 2599SOL     OW 8452   1.352   3.776   7.616
 2599SOL    HW1 8453   1.387   3.735   7.532
 2599SOL    HW2 8454   1.262   3.738   7.636
 2600SOL     OW 8455   0.039   4.801   7.748
 2600SOL    HW1 8456   0.138   4.790   7.739
 2600SOL    HW2 8457  -0.001   4.715   7.780
 2601SOL     OW 8458   2.092   0.628   0.113
 2601SOL    HW1 8459   1.999   0.626   0.150
 2601SOL    HW2 8460   2.093   0.589   0.021
 2602SOL     OW 8461   2.087   0.275   0.996
 2602SOL    HW1 8462   2.122   0.258   1.088
 2602SOL    HW2 8463   1.999   0.230   0.984
 2603SOL     OW 8464   1.881   0.368   0.647
 2603SOL    HW1 8465   1.799   0.411   0.686
 2603SOL    HW2 8466   1.853   0.295   0.584
 2604SOL     OW 8467   2.431   1.275   1.165
 2604SOL    HW1 8468   2.338   1.268   1.128
 2604SOL    HW2 8469   2.442   1.364   1.209
 2605SOL     OW 8470   3.417   1.511   0.703
 2605SOL    HW1 8471   3.360   1.495   0.784
 2605SOL    HW2 8472   3.358   1.521   0.623
 2606SOL     OW 8473   2.997   0.703   0.717
 2606SOL    HW1 8474   3.054   0.781   0.692
 2606SOL    HW2 8475   2.937   0.729   0.793
 2607SOL     OW 8476   3.617   0.607   0.231
 2607SOL    HW1 8477   3.605   0.594   0.132
 2607SOL    HW2 8478   3.587   0.526   0.280
 2608SOL     OW 8479   2.630   1.144   1.023
 2608SOL    HW1 8480   2.552   1.161   1.083
 2608SOL    HW2 8481   2.664   1.231   0.987
 2609SOL     OW 8482   2.712   0.798   1.823
 2609SOL    HW1 8483   2.708   0.874   1.888
 2609SOL    HW2 8484   2.734   0.834   1.732
 2610SOL     OW 8485   2.547   1.012   0.665
 2610SOL    HW1 8486   2.616   0.996   0.735
 2610SOL    HW2 8487   2.474   1.069   0.703
 2611SOL     OW 8488   2.548   1.161   1.803
 2611SOL    HW1 8489   2.608   1.240   1.817
 2611SOL    HW2 8490   2.462   1.192   1.762
 2612SOL     OW 8491   2.197   1.435   1.061
 2612SOL    HW1 8492   2.119   1.404   1.008
 2612SOL    HW2 8493   2.255   1.493   1.004
 2613SOL     OW 8494   3.322   1.505   1.339
 2613SOL    HW1 8495   3.346   1.599   1.365
 2613SOL    HW2 8496   3.306   1.451   1.421
 2614SOL     OW 8497   2.300   0.392   1.499
 2614SOL    HW1 8498   2.382   0.336   1.508
 2614SOL    HW2 8499   2.219   0.334   1.503
 2615SOL     OW 8500   3.465   0.447   0.737
 2615SOL    HW1 8501   3.391   0.493   0.687
 2615SOL    HW2 8502   3.516   0.515   0.790
 2616SOL     OW 8503   2.093   1.713   0.483
 2616SOL    HW1 8504   2.127   1.790   0.537
 2616SOL    HW2 8505   2.137   1.713   0.393
 2617SOL     OW 8506   2.989   1.341   1.690
 2617SOL    HW1 8507   3.036   1.341   1.778
 2617SOL    HW2 8508   2.941   1.254   1.679
 2618SOL     OW 8509   2.092   1.434   0.538
 2618SOL    HW1 8510   2.066   1.530   0.538
 2618SOL    HW2 8511   2.021   1.380   0.583
 2619SOL     OW 8512   2.102   1.091   0.886
 2619SOL    HW1 8513   2.116   1.007   0.938
 2619SOL    HW2 8514   2.047   1.155   0.941
 2620SOL     OW 8515   2.482   1.786   1.439
 2620SOL    HW1 8516   2.390   1.769   1.474
 2620SOL    HW2 8517   2.510   1.878   1.465
 2621SOL     OW 8518   2.468   0.964   0.123
 2621SOL    HW1 8519   2.475   1.048   0.069
 2621SOL    HW2 8520   2.514   0.977   0.211
 2622SOL     OW 8521   3.456   0.114   1.480
 2622SOL    HW1 8522   3.438   0.181   1.408
 2622SOL    HW2 8523   3.453   0.160   1.569
 2623SOL     OW 8524   1.984   0.643   0.563
 2623SOL    HW1 8525   1.939   0.555   0.580
 2623SOL    HW2 8526   1.983   0.697   0.647
 2624SOL     OW 8527   3.704   1.767   0.359
 2624SOL    HW1 8528   3.758   1.738   0.439
 2624SOL    HW2 8529   3.734   1.857   0.330
 2625SOL     OW 8530   1.889   1.596   0.117
 2625SOL    HW1 8531   1.870   1.500   0.138
 2625SOL    HW2 8532   1.856   1.654   0.192
 2626SOL     OW 8533   3.551   0.922   0.612
 2626SOL    HW1 8534   3.646   0.893   0.620
 2626SOL    HW2 8535   3.543   0.987   0.537
 2627SOL     OW 8536   3.503   1.108   0.432
 2627SOL    HW1 8537   3.589   1.110   0.380
 2627SOL    HW2 8538   3.517   1.155   0.520
 2628SOL     OW 8539   1.975   0.737   1.597
 2628SOL    HW1 8540   2.063   0.724   1.642
 2628SOL    HW2 8541   1.962   0.834   1.575
 2629SOL     OW 8542   2.475   1.365   0.726
 2629SOL    HW1 8543   2.426   1.278   0.735
 2629SOL    HW2 8544   2.452   1.408   0.639
 2630SOL     OW 8545   3.155   1.228   1.423
 2630SOL    HW1 8546   3.192   1.155   1.365
 2630SOL    HW2 8547   3.207   1.233   1.508
 2631SOL     OW 8548   2.671   0.004   0.502
 2631SOL    HW1 8549   2.711   0.095   0.493
 2631SOL    HW2 8550   2.571   0.012   0.508
 2632SOL     OW 8551   2.059   0.976   1.264
 2632SOL    HW1 8552   2.148   0.931   1.250
 2632SOL    HW2 8553   1.986   0.911   1.245
 2633SOL     OW 8554   3.387   0.999   0.190
 2633SOL    HW1 8555   3.324   0.923   0.203
 2633SOL    HW2 8556   3.435   1.017   0.276
 2634SOL     OW 8557   3.049   1.792   1.616
 2634SOL    HW1 8558   3.073   1.852   1.540
 2634SOL    HW2 8559   3.056   1.697   1.586
 2635SOL     OW 8560   2.179   0.251   1.801
 2635SOL    HW1 8561   2.250   0.322   1.807
 2635SOL    HW2 8562   2.091   0.290   1.829
 2636SOL     OW 8563   3.328   1.417   0.953
 2636SOL    HW1 8564   3.269   1.423   1.033
 2636SOL    HW2 8565   3.313   1.329   0.907
 2637SOL     OW 8566   3.529   1.714   0.572
 2637SOL    HW1 8567   3.488   1.691   0.484
 2637SOL    HW2 8568   3.511   1.640   0.637
 2638SOL     OW 8569   2.460   0.729   0.270
 2638SOL    HW1 8570   2.484   0.798   0.202
 2638SOL    HW2 8571   2.382   0.762   0.324
 2639SOL     OW 8572   3.143   0.345   0.944
 2639SOL    HW1 8573   3.057   0.295   0.931
 2639SOL    HW2 8574   3.205   0.291   1.000
 2640SOL     OW 8575   3.438   1.662   0.307
 2640SOL    HW1 8576   3.527   1.708   0.310
 2640SOL    HW2 8577   3.417   1.638   0.212
 2641SOL     OW 8578   2.669   0.605   1.465
 2641SOL    HW1 8579   2.622   0.602   1.554
 2641SOL    HW2 8580   2.618   0.550   1.399
 2642SOL     OW 8581   3.256   0.469   1.674
 2642SOL    HW1 8582   3.236   0.512   1.762
 2642SOL    HW2 8583   3.334   0.407   1.683
 2643SOL     OW 8584   2.835   0.890   1.572
 2643SOL    HW1 8585   2.881   0.806   1.543
 2643SOL    HW2 8586   2.779   0.924   1.497
 2644SOL     OW 8587   2.853   0.410   1.242
 2644SOL    HW1 8588   2.776   0.444   1.296
 2644SOL    HW2 8589   2.819   0.359   1.163
 2645SOL     OW 8590   2.903   0.701   0.429
 2645SOL    HW1 8591   2.929   0.697   0.525
 2645SOL    HW2 8592   2.818   0.650   0.415
 2646SOL     OW 8593   1.938   0.811   0.789
 2646SOL    HW1 8594   2.037   0.799   0.798
 2646SOL    HW2 8595   1.914   0.906   0.810
 2647SOL     OW 8596   1.992   1.821   1.571
 2647SOL    HW1 8597   1.982   1.806   1.670
 2647SOL    HW2 8598   1.906   1.857   1.535
 2648SOL     OW 8599   2.727   0.348   0.195
 2648SOL    HW1 8600   2.786   0.411   0.146
 2648SOL    HW2 8601   2.746   0.254   0.166
 2649SOL     OW 8602   3.581   0.585   1.831
 2649SOL    HW1 8603   3.555   0.674   1.795
 2649SOL    HW2 8604   3.579   0.517   1.758
 2650SOL     OW 8605   3.224   1.144   0.545
 2650SOL    HW1 8606   3.307   1.115   0.497
 2650SOL    HW2 8607   3.175   1.211   0.489
 2651SOL     OW 8608   2.412   0.196   0.885
 2651SOL    HW1 8609   2.407   0.191   0.985
 2651SOL    HW2 8610   2.414   0.292   0.856
 2652SOL     OW 8611   2.870   1.456   0.477
 2652SOL    HW1 8612   2.824   1.528   0.425
 2652SOL    HW2 8613   2.866   1.476   0.575
 2653SOL     OW 8614   2.213   1.801   0.853
 2653SOL    HW1 8615   2.263   1.715   0.859
 2653SOL    HW2 8616   2.278   1.878   0.850
 2654SOL     OW 8617   3.657   1.066   0.873
 2654SOL    HW1 8618   3.595   1.051   0.797
 2654SOL    HW2 8619   3.605   1.077   0.958
 2655SOL     OW 8620   3.089   1.550   1.506
 2655SOL    HW1 8621   3.095   1.473   1.570
 2655SOL    HW2 8622   3.037   1.524   1.426
 2656SOL     OW 8623   2.183   0.943   0.242
 2656SOL    HW1 8624   2.265   0.982   0.200
 2656SOL    HW2 8625   2.156   0.861   0.193
 2657SOL     OW 8626   3.320   0.735   0.728
 2657SOL    HW1 8627   3.315   0.670   0.803
 2657SOL    HW2 8628   3.400   0.794   0.741
 2658SOL     OW 8629   2.323   1.266   1.727
 2658SOL    HW1 8630   2.273   1.267   1.641
 2658SOL    HW2 8631   2.260   1.248   1.803
 2659SOL     OW 8632   2.973   1.776   0.237
 2659SOL    HW1 8633   2.913   1.714   0.287
 2659SOL    HW2 8634   3.004   1.732   0.152
 2660SOL     OW 8635   2.064   0.285   1.498
 2660SOL    HW1 8636   1.984   0.345   1.485
 2660SOL    HW2 8637   2.054   0.236   1.584
 2661SOL     OW 8638   3.494   1.377   0.081
 2661SOL    HW1 8639   3.462   1.471   0.071
 2661SOL    HW2 8640   3.418   1.314   0.069
 2662SOL     OW 8641   2.326   1.743   0.323
 2662SOL    HW1 8642   2.359   1.782   0.409
 2662SOL    HW2 8643   2.402   1.736   0.258
 2663SOL     OW 8644   3.262   0.107   0.426
 2663SOL    HW1 8645   3.238   0.070   0.336
 2663SOL    HW2 8646   3.361   0.123   0.430
 2664SOL     OW 8647   2.111   1.785   1.241
 2664SOL    HW1 8648   2.168   1.720   1.291
 2664SOL    HW2 8649   2.095   1.752   1.148
 2665SOL     OW 8650   2.802   1.698   0.904
 2665SOL    HW1 8651   2.882   1.641   0.925
 2665SOL    HW2 8652   2.753   1.658   0.827
 2666SOL     OW 8653   2.244   0.700   0.480
 2666SOL    HW1 8654   2.289   0.610   0.477
 2666SOL    HW2 8655   2.150   0.689   0.513
 2667SOL     OW 8656   3.409   0.222   1.729
 2667SOL    HW1 8657   3.404   0.259   1.821
 2667SOL    HW2 8658   3.337   0.153   1.717
 2668SOL     OW 8659   2.476   0.122   0.117
 2668SOL    HW1 8660   2.574   0.100   0.124
 2668SOL    HW2 8661   2.445   0.105   0.024
 2669SOL     OW 8662   2.643   0.264   1.749
 2669SOL    HW1 8663   2.710   0.203   1.792
 2669SOL    HW2 8664   2.570   0.283   1.814
 2670SOL     OW 8665   2.750   1.514   1.195
 2670SOL    HW1 8666   2.727   1.489   1.101
 2670SOL    HW2 8667   2.811   1.445   1.234
 2671SOL     OW 8668   3.213   0.590   1.433
 2671SOL    HW1 8669   3.241   0.547   1.518
 2671SOL    HW2 8670   3.238   0.686   1.434
 2672SOL     OW 8671   2.665   1.402   0.924
 2672SOL    HW1 8672   2.755   1.416   0.882
 2672SOL    HW2 8673   2.594   1.404   0.853
 2673SOL     OW 8674   2.784   0.503   0.899
 2673SOL    HW1 8675   2.759   0.494   0.803
 2673SOL    HW2 8676   2.832   0.421   0.930
 2674SOL     OW 8677   2.401   0.064   0.512
 2674SOL    HW1 8678   2.320   0.065   0.570
 2674SOL    HW2 8679   2.404   0.147   0.457
 2675SOL     OW 8680   3.296   1.188   0.041
 2675SOL    HW1 8681   3.328   1.112   0.098
 2675SOL    HW2 8682   3.204   1.215   0.071
 2676SOL     OW 8683   2.159   0.035   0.171
 2676SOL    HW1 8684   2.208   0.119   0.150
 2676SOL    HW2 8685   2.221  -0.030   0.216
 2677SOL     OW 8686   2.797   0.236   0.480
 2677SOL    HW1 8687   2.749   0.277   0.402
 2677SOL    HW2 8688   2.896   0.234   0.461
 2678SOL     OW 8689   2.938   0.683   1.464
 2678SOL    HW1 8690   2.858   0.622   1.467
 2678SOL    HW2 8691   3.019   0.630   1.440
 2679SOL     OW 8692   3.089   1.570   0.793
 2679SOL    HW1 8693   3.110   1.644   0.728
 2679SOL    HW2 8694   3.157   1.570   0.866
 2680SOL     OW 8695   2.321   1.152   0.741
 2680SOL    HW1 8696   2.250   1.125   0.806
 2680SOL    HW2 8697   2.295   1.124   0.648
 2681SOL     OW 8698   3.133   1.797   0.591
 2681SOL    HW1 8699   3.177   1.861   0.527
 2681SOL    HW2 8700   3.083   1.849   0.661
 2682SOL     OW 8701   2.894   0.549   0.016
 2682SOL    HW1 8702   2.853   0.631  -0.023
 2682SOL    HW2 8703   2.958   0.575   0.089
 2683SOL     OW 8704   1.940   0.556   1.386
 2683SOL    HW1 8705   2.032   0.555   1.345
 2683SOL    HW2 8706   1.934   0.630   1.453
 2684SOL     OW 8707   2.423   0.222   1.147
 2684SOL    HW1 8708   2.461   0.138   1.184
 2684SOL    HW2 8709   2.335   0.241   1.191
 2685SOL     OW 8710   2.728   0.454   0.642
 2685SOL    HW1 8711   2.696   0.526   0.580
 2685SOL    HW2 8712   2.752   0.373   0.589
 2686SOL     OW 8713   2.879   0.039   0.753
 2686SOL    HW1 8714   2.807   0.044   0.684
 2686SOL    HW2 8715   2.855  -0.030   0.822
 2687SOL     OW 8716   3.291   1.173   0.867
 2687SOL    HW1 8717   3.236   1.089   0.860
 2687SOL    HW2 8718   3.317   1.202   0.775
 2688SOL     OW 8719   3.328   0.590   0.992
 2688SOL    HW1 8720   3.298   0.495   0.999
 2688SOL    HW2 8721   3.401   0.606   1.058
 2689SOL     OW 8722   3.719   0.833   0.377
 2689SOL    HW1 8723   3.761   0.769   0.441
 2689SOL    HW2 8724   3.681   0.782   0.299
 2690SOL     OW 8725   2.350   1.385   0.174
 2690SOL    HW1 8726   2.263   1.370   0.221
 2690SOL    HW2 8727   2.333   1.411   0.079
 2691SOL     OW 8728   3.526   1.280   0.657
 2691SOL    HW1 8729   3.625   1.288   0.671
 2691SOL    HW2 8730   3.481   1.364   0.688
 2692SOL     OW 8731   3.252   0.575   0.078
 2692SOL    HW1 8732   3.198   0.554   0.159
 2692SOL    HW2 8733   3.343   0.534   0.087
 2693SOL     OW 8734   2.389   0.256   0.328
 2693SOL    HW1 8735   2.416   0.197   0.253
 2693SOL    HW2 8736   2.389   0.351   0.297
 2694SOL     OW 8737   3.616   1.223   1.588
 2694SOL    HW1 8738   3.707   1.184   1.575
 2694SOL    HW2 8739   3.624   1.319   1.612
 2695SOL     OW 8740   2.926   1.347   1.340
 2695SOL    HW1 8741   2.846   1.324   1.395
 2695SOL    HW2 8742   3.009   1.321   1.389
 2696SOL     OW 8743   3.454   1.629   1.625
 2696SOL    HW1 8744   3.481   1.663   1.535
 2696SOL    HW2 8745   3.533   1.591   1.671
 2697SOL     OW 8746   2.973   1.195   1.100
 2697SOL    HW1 8747   2.933   1.239   1.181
 2697SOL    HW2 8748   2.932   1.232   1.017
 2698SOL     OW 8749   3.500   1.099   1.079
 2698SOL    HW1 8750   3.505   1.180   1.138
 2698SOL    HW2 8751   3.414   1.101   1.028
 2699SOL     OW 8752   2.777   0.089   1.402
 2699SOL    HW1 8753   2.802   0.069   1.307
 2699SOL    HW2 8754   2.849   0.145   1.444
 2700SOL     OW 8755   2.842   1.116   1.719
 2700SOL    HW1 8756   2.743   1.122   1.729
 2700SOL    HW2 8757   2.865   1.036   1.663
 2701SOL     OW 8758   2.567   1.050   0.368
 2701SOL    HW1 8759   2.553   1.057   0.467
 2701SOL    HW2 8760   2.651   0.999   0.350
 2702SOL     OW 8761   2.272   0.813   1.251
 2702SOL    HW1 8762   2.358   0.825   1.301
 2702SOL    HW2 8763   2.230   0.726   1.278
 2703SOL     OW 8764   3.136   0.386   1.262
 2703SOL    HW1 8765   3.157   0.460   1.326
 2703SOL    HW2 8766   3.047   0.403   1.219
 2704SOL     OW 8767   1.926   1.564   1.331
 2704SOL    HW1 8768   1.880   1.646   1.297
 2704SOL    HW2 8769   2.024   1.583   1.340
 2705SOL     OW 8770   2.229   1.100   0.501
 2705SOL    HW1 8771   2.222   1.183   0.445
 2705SOL    HW2 8772   2.233   1.020   0.441
 2706SOL     OW 8773   2.428   0.537   0.865
 2706SOL    HW1 8774   2.440   0.603   0.791
 2706SOL    HW2 8775   2.474   0.571   0.948
 2707SOL     OW 8776   3.114   1.348   0.388
 2707SOL    HW1 8777   3.164   1.425   0.428
 2707SOL    HW2 8778   3.019   1.350   0.420
 2708SOL     OW 8779   3.134   1.445   1.142
 2708SOL    HW1 8780   3.181   1.458   1.229
 2708SOL    HW2 8781   3.068   1.371   1.151
 2709SOL     OW 8782   3.444   0.639   0.472
 2709SOL    HW1 8783   3.413   0.700   0.545
 2709SOL    HW2 8784   3.494   0.691   0.403
 2710SOL     OW 8785   2.216   1.510   1.329
 2710SOL    HW1 8786   2.195   1.466   1.242
 2710SOL    HW2 8787   2.313   1.536   1.332
 2711SOL     OW 8788   2.264   0.751   1.598
 2711SOL    HW1 8789   2.332   0.806   1.551
 2711SOL    HW2 8790   2.304   0.663   1.625
 2712SOL     OW 8791   3.449   0.779   1.670
 2712SOL    HW1 8792   3.357   0.817   1.665
 2712SOL    HW2 8793   3.509   0.826   1.605
 2713SOL     OW 8794   2.875   0.105   1.770
 2713SOL    HW1 8795   2.881   0.190   1.718
 2713SOL    HW2 8796   2.907   0.029   1.713
 2714SOL     OW 8797   2.366   0.050   1.740
 2714SOL    HW1 8798   2.324  -0.007   1.670
 2714SOL    HW2 8799   2.300   0.119   1.772
 2715SOL     OW 8800   2.435   0.870   1.029
 2715SOL    HW1 8801   2.479   0.959   1.020
 2715SOL    HW2 8802   2.372   0.870   1.106
 2716SOL     OW 8803   3.222   0.862   1.045
 2716SOL    HW1 8804   3.147   0.862   0.979
 2716SOL    HW2 8805   3.259   0.770   1.054
 2717SOL     OW 8806   3.071   0.525   0.275
 2717SOL    HW1 8807   3.084   0.441   0.329
 2717SOL    HW2 8808   3.042   0.599   0.335
 2718SOL     OW 8809   2.169   0.213   1.231
 2718SOL    HW1 8810   2.146   0.250   1.321
 2718SOL    HW2 8811   2.139   0.118   1.225
 2719SOL     OW 8812   1.899   1.310   1.282
 2719SOL    HW1 8813   1.952   1.261   1.350
 2719SOL    HW2 8814   1.921   1.408   1.287
 2720SOL     OW 8815   2.594   0.634   1.064
 2720SOL    HW1 8816   2.653   0.608   0.988
 2720SOL    HW2 8817   2.566   0.730   1.053
 2721SOL     OW 8818   3.590   0.935   1.854
 2721SOL    HW1 8819   3.544   0.928   1.765
 2721SOL    HW2 8820   3.528   0.979   1.920
 2722SOL     OW 8821   2.169   0.063   0.618
 2722SOL    HW1 8822   2.158   0.157   0.651
 2722SOL    HW2 8823   2.164   0.000   0.695
 2723SOL     OW 8824   3.484   0.367   0.374
 2723SOL    HW1 8825   3.486   0.291   0.438
 2723SOL    HW2 8826   3.436   0.444   0.414
 2724SOL     OW 8827   2.885   0.766   0.966
 2724SOL    HW1 8828   2.900   0.787   1.062
 2724SOL    HW2 8829   2.855   0.671   0.957
 2725SOL     OW 8830   2.842   1.573   1.700
 2725SOL    HW1 8831   2.822   1.617   1.612
 2725SOL    HW2 8832   2.881   1.482   1.684
 2726SOL     OW 8833   3.721   1.518   1.605
 2726SOL    HW1 8834   3.735   1.545   1.510
 2726SOL    HW2 8835   3.804   1.540   1.658
 2727SOL     OW 8836   2.212   0.898   1.804
 2727SOL    HW1 8837   2.288   0.942   1.852
 2727SOL    HW2 8838   2.247   0.851   1.722
 2728SOL     OW 8839   3.402   0.274   0.125
 2728SOL    HW1 8840   3.341   0.199   0.148
 2728SOL    HW2 8841   3.424   0.326   0.208
 2729SOL     OW 8842   3.165   0.838   0.042
 2729SOL    HW1 8843   3.199   0.745   0.057
 2729SOL    HW2 8844   3.183   0.865  -0.053
 2730SOL     OW 8845   2.930   1.333   0.849
 2730SOL    HW1 8846   2.937   1.249   0.794
 2730SOL    HW2 8847   2.992   1.402   0.813
 2731SOL     OW 8848   2.181   0.810   0.949
 2731SOL    HW1 8849   2.274   0.846   0.954
 2731SOL    HW2 8850   2.175   0.725   1.001
 2732SOL     OW 8851   2.201   0.509   1.006
 2732SOL    HW1 8852   2.149   0.426   0.989
 2732SOL    HW2 8853   2.278   0.514   0.942
 2733SOL     OW 8854   3.000   0.380   1.678
 2733SOL    HW1 8855   2.955   0.443   1.742
 2733SOL    HW2 8856   3.093   0.411   1.661
 2734SOL     OW 8857   3.022   0.207   1.477
 2734SOL    HW1 8858   3.022   0.271   1.554
 2734SOL    HW2 8859   3.050   0.255   1.394
 2735SOL     OW 8860   1.870   1.326   0.200
 2735SOL    HW1 8861   1.777   1.347   0.169
 2735SOL    HW2 8862   1.880   1.227   0.213
 2736SOL     OW 8863   1.950   1.801   0.927
 2736SOL    HW1 8864   1.908   1.715   0.900
 2736SOL    HW2 8865   2.044   1.804   0.893
 2737SOL     OW 8866   2.366   1.568   0.910
 2737SOL    HW1 8867   2.432   1.642   0.919
 2737SOL    HW2 8868   2.410   1.489   0.868
 2738SOL     OW 8869   2.864   0.796   1.238
 2738SOL    HW1 8870   2.905   0.764   1.324
 2738SOL    HW2 8871   2.768   0.769   1.235
 2739SOL     OW 8872   1.902   0.544   1.114
 2739SOL    HW1 8873   1.987   0.511   1.073
 2739SOL    HW2 8874   1.915   0.559   1.212
 2740SOL     OW 8875   2.051   0.520   1.722
 2740SOL    HW1 8876   2.110   0.480   1.652
 2740SOL    HW2 8877   1.993   0.591   1.681
 2741SOL     OW 8878   3.231   0.950   1.660
 2741SOL    HW1 8879   3.270   1.039   1.680
 2741SOL    HW2 8880   3.241   0.930   1.563
 2742SOL     OW 8881   2.677   0.572   0.325
 2742SOL    HW1 8882   2.684   0.483   0.279
 2742SOL    HW2 8883   2.583   0.606   0.317
 2743SOL     OW 8884   3.519   0.604   1.206
 2743SOL    HW1 8885   3.481   0.535   1.268
 2743SOL    HW2 8886   3.601   0.568   1.162
 2744SOL     OW 8887   2.114   1.564   1.744
 2744SOL    HW1 8888   2.084   1.621   1.820
 2744SOL    HW2 8889   2.107   1.467   1.770
 2745SOL     OW 8890   2.533   0.464   1.269
 2745SOL    HW1 8891   2.499   0.375   1.239
 2745SOL    HW2 8892   2.559   0.518   1.189
 2746SOL     OW 8893   2.792   1.678   1.465
 2746SOL    HW1 8894   2.768   1.660   1.370
 2746SOL    HW2 8895   2.822   1.772   1.475
 2747SOL     OW 8896   2.335   0.500   0.191
 2747SOL    HW1 8897   2.396   0.580   0.195
 2747SOL    HW2 8898   2.240   0.531   0.198
 2748SOL     OW 8899   2.021   1.137   1.466
 2748SOL    HW1 8900   2.043   1.076   1.542
 2748SOL    HW2 8901   2.031   1.088   1.380
 2749SOL     OW 8902   3.209   1.059   1.234
 2749SOL    HW1 8903   3.233   0.996   1.160
 2749SOL    HW2 8904   3.119   1.099   1.216
 2750SOL     OW 8905   3.164   0.855   0.309
 2750SOL    HW1 8906   3.078   0.824   0.351
 2750SOL    HW2 8907   3.160   0.841   0.210
 2751SOL     OW 8908   3.621   1.747   1.154
 2751SOL    HW1 8909   3.682   1.777   1.081
 2751SOL    HW2 8910   3.583   1.658   1.132
 2752SOL     OW 8911   3.114   1.731   1.128
 2752SOL    HW1 8912   3.198   1.736   1.074
 2752SOL    HW2 8913   3.091   1.635   1.146
 2753SOL     OW 8914   1.945   1.258   1.022
 2753SOL    HW1 8915   1.940   1.257   1.122
 2753SOL    HW2 8916   1.862   1.217   0.984
 2754SOL     OW 8917   2.550   1.662   1.716
 2754SOL    HW1 8918   2.494   1.743   1.725
 2754SOL    HW2 8919   2.602   1.666   1.630
 2755SOL     OW 8920   2.765   0.086   0.133
 2755SOL    HW1 8921   2.816   0.087   0.047
 2755SOL    HW2 8922   2.821   0.044   0.204
 2756SOL     OW 8923   3.588   0.135   0.523
 2756SOL    HW1 8924   3.661   0.118   0.456
 2756SOL    HW2 8925   3.557   0.048   0.561
 2757SOL     OW 8926   3.250   1.573   0.477
 2757SOL    HW1 8927   3.317   1.585   0.403
 2757SOL    HW2 8928   3.210   1.662   0.500
 2758SOL     OW 8929   1.992   1.794   1.851
 2758SOL    HW1 8930   1.951   1.720   1.904
 2758SOL    HW2 8931   2.056   1.845   1.909
 2759SOL     OW 8932   3.142   0.927   0.672
 2759SOL    HW1 8933   3.202   0.846   0.674
 2759SOL    HW2 8934   3.182   0.996   0.612
 2760SOL     OW 8935   2.692   1.273   1.422
 2760SOL    HW1 8936   2.687   1.306   1.517
 2760SOL    HW2 8937   2.606   1.292   1.376
 2761SOL     OW 8938   2.534   1.616   0.154
 2761SOL    HW1 8939   2.543   1.626   0.055
 2761SOL    HW2 8940   2.494   1.527   0.175
 2762SOL     OW 8941   3.512   1.720   1.394
 2762SOL    HW1 8942   3.565   1.730   1.310
 2762SOL    HW2 8943   3.485   1.810   1.428
 2763SOL     OW 8944   3.703   0.175   0.963
 2763SOL    HW1 8945   3.742   0.090   0.927
 2763SOL    HW2 8946   3.605   0.177   0.944
 2764SOL     OW 8947   2.125   0.326   0.720
 2764SOL    HW1 8948   2.046   0.377   0.686
 2764SOL    HW2 8949   2.116   0.311   0.818
 2765SOL     OW 8950   3.056   1.612   0.031
 2765SOL    HW1 8951   3.062   1.519   0.068
 2765SOL    HW2 8952   2.997   1.612  -0.049
 2766SOL     OW 8953   2.684   1.002   1.372
 2766SOL    HW1 8954   2.724   1.001   1.280
 2766SOL    HW2 8955   2.694   1.094   1.412
 2767SOL     OW 8956   2.778   0.910   0.291
 2767SOL    HW1 8957   2.841   0.948   0.223
 2767SOL    HW2 8958   2.818   0.827   0.330
 2768SOL     OW 8959   3.366   1.607   0.044
 2768SOL    HW1 8960   3.274   1.644   0.051
 2768SOL    HW2 8961   3.404   1.627  -0.046
 2769SOL     OW 8962   2.234   1.288   1.490
 2769SOL    HW1 8963   2.221   1.381   1.456
 2769SOL    HW2 8964   2.150   1.236   1.477
 2770SOL     OW 8965   3.476   1.292   1.289
 2770SOL    HW1 8966   3.536   1.295   1.369
 2770SOL    HW2 8967   3.401   1.356   1.302
 2771SOL     OW 8968   2.901   1.098   0.696
 2771SOL    HW1 8969   2.831   1.051   0.750
 2771SOL    HW2 8970   2.960   1.030   0.653
 2772SOL     OW 8971   2.876   0.236   0.971
 2772SOL    HW1 8972   2.868   0.200   0.878
 2772SOL    HW2 8973   2.874   0.160   1.036
 2773SOL     OW 8974   2.452   1.487   0.491
 2773SOL    HW1 8975   2.494   1.429   0.421
 2773SOL    HW2 8976   2.408   1.566   0.447
 2774SOL     OW 8977   3.571   0.385   1.381
 2774SOL    HW1 8978   3.644   0.454   1.385
 2774SOL    HW2 8979   3.599   0.310   1.322
 2775SOL     OW 8980   2.117   1.348   0.290
 2775SOL    HW1 8981   2.021   1.349   0.263
 2775SOL    HW2 8982   2.129   1.401   0.374
 2776SOL     OW 8983   1.967   1.013   1.726
 2776SOL    HW1 8984   1.890   0.980   1.780
 2776SOL    HW2 8985   2.052   0.983   1.768
 2777SOL     OW 8986   2.534   0.203   1.489
 2777SOL    HW1 8987   2.624   0.187   1.449
 2777SOL    HW2 8988   2.542   0.208   1.588
 2778SOL     OW 8989   1.937   0.345   0.033
 2778SOL    HW1 8990   1.845   0.317   0.004
 2778SOL    HW2 8991   1.968   0.422  -0.023
 2779SOL     OW 8992   3.302   0.856   1.398
 2779SOL    HW1 8993   3.245   0.908   1.335
 2779SOL    HW2 8994   3.398   0.868   1.374
 2780SOL     OW 8995   1.934   0.166   0.318
 2780SOL    HW1 8996   1.917   0.249   0.264
 2780SOL    HW2 8997   2.024   0.129   0.296
 2781SOL     OW 8998   3.045   1.335   0.119
 2781SOL    HW1 8999   2.946   1.324   0.121
 2781SOL    HW2 9000   3.079   1.350   0.212
 2782SOL     OW 9001   2.475   0.842   1.431
 2782SOL    HW1 9002   2.531   0.923   1.414
 2782SOL    HW2 9003   2.534   0.762   1.434
 2783SOL     OW 9004   3.355   1.767   0.959
 2783SOL    HW1 9005   3.388   1.831   0.890
 2783SOL    HW2 9006   3.421   1.761   1.034
 2784SOL     OW 9007   2.578   0.565   1.708
 2784SOL    HW1 9008   2.597   0.630   1.782
 2784SOL    HW2 9009   2.638   0.485   1.717
 2785SOL     OW 9010   3.312   1.220   1.633
 2785SOL    HW1 9011   3.303   1.210   1.732
 2785SOL    HW2 9012   3.408   1.213   1.607
 2786SOL     OW 9013   2.252   1.741   1.560
 2786SOL    HW1 9014   2.161   1.782   1.558
 2786SOL    HW2 9015   2.245   1.647   1.592
 2787SOL     OW 9016   3.536   0.883   1.254
 2787SOL    HW1 9017   3.509   0.794   1.217
 2787SOL    HW2 9018   3.537   0.951   1.181
 2788SOL     OW 9019   3.087   0.325   0.449
 2788SOL    HW1 9020   3.152   0.251   0.438
 2788SOL    HW2 9021   3.107   0.375   0.533
 2789SOL     OW 9022   2.456   0.745   0.652
 2789SOL    HW1 9023   2.506   0.830   0.633
 2789SOL    HW2 9024   2.368   0.747   0.604
 2790SOL     OW 9025   3.639   0.342   1.642
 2790SOL    HW1 9026   3.622   0.373   1.548
 2790SOL    HW2 9027   3.555   0.305   1.680
 2791SOL     OW 9028   3.592   0.934   1.517
 2791SOL    HW1 9029   3.630   1.025   1.532
 2791SOL    HW2 9030   3.584   0.917   1.418
 2792SOL     OW 9031   2.721   1.374   0.016
 2792SOL    HW1 9032   2.675   1.389   0.104
 2792SOL    HW2 9033   2.765   1.459  -0.014
 2793SOL     OW 9034   2.523   1.790   0.953
 2793SOL    HW1 9035   2.477   1.878   0.940
 2793SOL    HW2 9036   2.622   1.802   0.946
 2794SOL     OW 9037   2.721   0.956   0.861
 2794SOL    HW1 9038   2.775   0.887   0.909
 2794SOL    HW2 9039   2.689   1.025   0.927
 2795SOL     OW 9040   2.945   0.984   0.087
 2795SOL    HW1 9041   2.922   1.037   0.005
 2795SOL    HW2 9042   3.026   0.928   0.068
 2796SOL     OW 9043   3.723   1.569   0.851
 2796SOL    HW1 9044   3.652   1.557   0.781
 2796SOL    HW2 9045   3.724   1.490   0.911
 2797SOL     OW 9046   2.083   1.314   1.844
 2797SOL    HW1 9047   2.018   1.241   1.823
 2797SOL    HW2 9048   2.087   1.328   1.942
 2798SOL     OW 9049   1.941   1.240   0.653
 2798SOL    HW1 9050   1.940   1.193   0.741
 2798SOL    HW2 9051   2.023   1.212   0.602
 2799SOL     OW 9052   2.534   1.391   1.624
 2799SOL    HW1 9053   2.456   1.341   1.662
 2799SOL    HW2 9054   2.531   1.486   1.655
 2800SOL     OW 9055   3.686   0.192   1.227
 2800SOL    HW1 9056   3.682   0.102   1.271
 2800SOL    HW2 9057   3.689   0.181   1.128
 2801SOL     OW 9058   2.290   0.424   0.520
 2801SOL    HW1 9059   2.320   0.352   0.458
 2801SOL    HW2 9060   2.251   0.384   0.603
 2802SOL     OW 9061   3.567   1.487   1.104
 2802SOL    HW1 9062   3.474   1.462   1.077
 2802SOL    HW2 9063   3.593   1.437   1.186
 2803SOL     OW 9064   2.179   0.547   1.280
 2803SOL    HW1 9065   2.217   0.488   1.352
 2803SOL    HW2 9066   2.219   0.521   1.192
 2804SOL     OW 9067   2.674   1.586   0.687
 2804SOL    HW1 9068   2.706   1.596   0.593
 2804SOL    HW2 9069   2.595   1.524   0.689
 2805SOL     OW 9070   3.286   0.214   1.112
 2805SOL    HW1 9071   3.338   0.149   1.167
 2805SOL    HW2 9072   3.237   0.277   1.173
 2806SOL     OW 9073   2.863   0.034   1.154
 2806SOL    HW1 9074   2.800  -0.038   1.123
 2806SOL    HW2 9075   2.956  -0.002   1.154
 2807SOL     OW 9076   2.632   1.330   0.301
 2807SOL    HW1 9077   2.586   1.243   0.318
 2807SOL    HW2 9078   2.723   1.327   0.342
 2808SOL     OW 9079   2.480   1.567   1.284
 2808SOL    HW1 9080   2.475   1.649   1.341
 2808SOL    HW2 9081   2.569   1.564   1.239
 2809SOL     OW 9082   3.214   0.052   0.168
 2809SOL    HW1 9083   3.249   0.011   0.084
 2809SOL    HW2 9084   3.124   0.014   0.188
 2810SOL     OW 9085   3.162   0.453   0.691
 2810SOL    HW1 9086   3.103   0.533   0.695
 2810SOL    HW2 9087   3.177   0.418   0.784
 2811SOL     OW 9088   3.455   0.221   0.882
 2811SOL    HW1 9089   3.371   0.220   0.936
 2811SOL    HW2 9090   3.457   0.304   0.826
 2812SOL     OW 9091   1.901   1.077   0.300
 2812SOL    HW1 9092   2.000   1.066   0.291
 2812SOL    HW2 9093   1.861   0.991   0.332
 2813SOL     OW 9094   2.737   1.646   0.337
 2813SOL    HW1 9095   2.660   1.611   0.283
 2813SOL    HW2 9096   2.705   1.717   0.399
 2814SOL     OW 9097   2.092   0.628   1.975
 2814SOL    HW1 9098   1.999   0.626   2.012
 2814SOL    HW2 9099   2.093   0.589   1.883
 2815SOL     OW 9100   2.087   0.275   2.858
 2815SOL    HW1 9101   2.122   0.258   2.950
 2815SOL    HW2 9102   1.999   0.230   2.846
 2816SOL     OW 9103   1.881   0.368   2.509
 2816SOL    HW1 9104   1.799   0.411   2.548
 2816SOL    HW2 9105   1.853   0.295   2.446
 2817SOL     OW 9106   2.431   1.275   3.027
 2817SOL    HW1 9107   2.338   1.268   2.990
 2817SOL    HW2 9108   2.442   1.364   3.071
 2818SOL     OW 9109   3.417   1.511   2.565
 2818SOL    HW1 9110   3.360   1.495   2.646
 2818SOL    HW2 9111   3.358   1.521   2.485
 2819SOL     OW 9112   2.997   0.703   2.579
 2819SOL    HW1 9113   3.054   0.781   2.554
 2819SOL    HW2 9114   2.937   0.729   2.655
 2820SOL     OW 9115   3.617   0.607   2.093
 2820SOL    HW1 9116   3.605   0.594   1.994
 2820SOL    HW2 9117   3.587   0.526   2.142
 2821SOL     OW 9118   2.630   1.144   2.885
 2821SOL    HW1 9119   2.552   1.161   2.945
 2821SOL    HW2 9120   2.664   1.231   2.849
 2822SOL     OW 9121   2.712   0.798   3.685
 2822SOL    HW1 9122   2.708   0.874   3.750
 2822SOL    HW2 9123   2.734   0.834   3.594
 2823SOL     OW 9124   2.547   1.012   2.527
 2823SOL    HW1 9125   2.616   0.996   2.597
 2823SOL    HW2 9126   2.474   1.069   2.565
 2824SOL     OW 9127   2.548   1.161   3.665
 2824SOL    HW1 9128   2.608   1.240   3.679
 2824SOL    HW2 9129   2.462   1.192   3.624
 2825SOL     OW 9130   2.197   1.435   2.923
 2825SOL    HW1 9131   2.119   1.404   2.870
 2825SOL    HW2 9132   2.255   1.493   2.866
 2826SOL     OW 9133   3.322   1.505   3.201
 2826SOL    HW1 9134   3.346   1.599   3.227
 2826SOL    HW2 9135   3.306   1.451   3.283
 2827SOL     OW 9136   2.300   0.392   3.361
 2827SOL    HW1 9137   2.382   0.336   3.370
 2827SOL    HW2 9138   2.219   0.334   3.365
 2828SOL     OW 9139   3.465   0.447   2.599
 2828SOL    HW1 9140   3.391   0.493   2.549
 2828SOL    HW2 9141   3.516   0.515   2.652
 2829SOL     OW 9142   2.093   1.713   2.345
 2829SOL    HW1 9143   2.127   1.790   2.399
 2829SOL    HW2 9144   2.137   1.713   2.255
 2830SOL     OW 9145   2.989   1.341   3.552
 2830SOL    HW1 9146   3.036   1.341   3.640
 2830SOL    HW2 9147   2.941   1.254   3.541
 2831SOL     OW 9148   2.092   1.434   2.400
 2831SOL    HW1 9149   2.066   1.530   2.400
 2831SOL    HW2 9150   2.021   1.380   2.445
 2832SOL     OW 9151   2.102   1.091   2.748
 2832SOL    HW1 9152   2.116   1.007   2.800
 2832SOL    HW2 9153   2.047   1.155   2.803
 2833SOL     OW 9154   2.482   1.786   3.301
 2833SOL    HW1 9155   2.390   1.769   3.336
 2833SOL    HW2 9156   2.510   1.878   3.327
 2834SOL     OW 9157   2.468   0.964   1.985
 2834SOL    HW1 9158   2.475   1.048   1.931
 2834SOL    HW2 9159   2.514   0.977   2.073
 2835SOL     OW 9160   3.456   0.114   3.342
 2835SOL    HW1 9161   3.438   0.181   3.270
 2835SOL    HW2 9162   3.453   0.160   3.431
 2836SOL     OW 9163   1.984   0.643   2.425
 2836SOL    HW1 9164   1.939   0.555   2.442
 2836SOL    HW2 9165   1.983   0.697   2.509
 2837SOL     OW 9166   3.704   1.767   2.221
 2837SOL    HW1 9167   3.758   1.738   2.301
 2837SOL    HW2 9168   3.734   1.857   2.192
 2838SOL     OW 9169   1.889   1.596   1.979
 2838SOL    HW1 9170   1.870   1.500   2.000
 2838SOL    HW2 9171   1.856   1.654   2.054
 2839SOL     OW 9172   3.551   0.922   2.474
 2839SOL    HW1 9173   3.646   0.893   2.482
 2839SOL    HW2 9174   3.543   0.987   2.399
 2840SOL     OW 9175   3.503   1.108   2.294
 2840SOL    HW1 9176   3.589   1.110   2.242
 2840SOL    HW2 9177   3.517   1.155   2.382
 2841SOL     OW 9178   1.975   0.737   3.459
 2841SOL    HW1 9179   2.063   0.724   3.504
 2841SOL    HW2 9180   1.962   0.834   3.437
 2842SOL     OW 9181   2.475   1.365   2.588
 2842SOL    HW1 9182   2.426   1.278   2.597
 2842SOL    HW2 9183   2.452   1.408   2.501
 2843SOL     OW 9184   3.155   1.228   3.285
 2843SOL    HW1 9185   3.192   1.155   3.227
 2843SOL    HW2 9186   3.207   1.233   3.370
 2844SOL     OW 9187   2.671   0.004   2.364
 2844SOL    HW1 9188   2.711   0.095   2.355
 2844SOL    HW2 9189   2.571   0.012   2.370
 2845SOL     OW 9190   2.059   0.976   3.126
 2845SOL    HW1 9191   2.148   0.931   3.112
 2845SOL    HW2 9192   1.986   0.911   3.107
 2846SOL     OW 9193   3.387   0.999   2.052
 2846SOL    HW1 9194   3.324   0.923   2.065
 2846SOL    HW2 9195   3.435   1.017   2.138
 2847SOL     OW 9196   3.049   1.792   3.478
 2847SOL    HW1 9197   3.073   1.852   3.402
 2847SOL    HW2 9198   3.056   1.697   3.448
 2848SOL     OW 9199   2.179   0.251   3.663
 2848SOL    HW1 9200   2.250   0.322   3.669
 2848SOL    HW2 9201   2.091   0.290   3.691
 2849SOL     OW 9202   3.328   1.417   2.815
 2849SOL    HW1 9203   3.269   1.423   2.895
 2849SOL    HW2 9204   3.313   1.329   2.769
 2850SOL     OW 9205   3.529   1.714   2.434
 2850SOL    HW1 9206   3.488   1.691   2.346
 2850SOL    HW2 9207   3.511   1.640   2.499
 2851SOL     OW 9208   2.460   0.729   2.132
 2851SOL    HW1 9209   2.484   0.798   2.064
 2851SOL    HW2 9210   2.382   0.762   2.186
 2852SOL     OW 9211   3.143   0.345   2.806
 2852SOL    HW1 9212   3.057   0.295   2.793
 2852SOL    HW2 9213   3.205   0.291   2.862
 2853SOL     OW 9214   3.438   1.662   2.169
 2853SOL    HW1 9215   3.527   1.708   2.172
 2853SOL    HW2 9216   3.417   1.638   2.074
 2854SOL     OW 9217   2.669   0.605   3.327
 2854SOL    HW1 9218   2.622   0.602   3.416
 2854SOL    HW2 9219   2.618   0.550   3.261
 2855SOL     OW 9220   3.256   0.469   3.536
 2855SOL    HW1 9221   3.236   0.512   3.624
 2855SOL    HW2 9222   3.334   0.407   3.545
 2856SOL     OW 9223   2.835   0.890   3.434
 2856SOL    HW1 9224   2.881   0.806   3.405
 2856SOL    HW2 9225   2.779   0.924   3.359
 2857SOL     OW 9226   2.853   0.410   3.104
 2857SOL    HW1 9227   2.776   0.444   3.158
 2857SOL    HW2 9228   2.819   0.359   3.025
 2858SOL     OW 9229   2.903   0.701   2.291
 2858SOL    HW1 9230   2.929   0.697   2.387
 2858SOL    HW2 9231   2.818   0.650   2.277
 2859SOL     OW 9232   1.938   0.811   2.651
 2859SOL    HW1 9233   2.037   0.799   2.660
 2859SOL    HW2 9234   1.914   0.906   2.672
 2860SOL     OW 9235   1.992   1.821   3.433
 2860SOL    HW1 9236   1.982   1.806   3.532
 2860SOL    HW2 9237   1.906   1.857   3.397
 2861SOL     OW 9238   2.727   0.348   2.057
 2861SOL    HW1 9239   2.786   0.411   2.008
 2861SOL    HW2 9240   2.746   0.254   2.028
 2862SOL     OW 9241   3.581   0.585   3.693
 2862SOL    HW1 9242   3.555   0.674   3.657
 2862SOL    HW2 9243   3.579   0.517   3.620
 2863SOL     OW 9244   3.224   1.144   2.407
 2863SOL    HW1 9245   3.307   1.115   2.359
 2863SOL    HW2 9246   3.175   1.211   2.351
 2864SOL     OW 9247   2.412   0.196   2.747
 2864SOL    HW1 9248   2.407   0.191   2.847
 2864SOL    HW2 9249   2.414   0.292   2.718
 2865SOL     OW 9250   2.870   1.456   2.339
 2865SOL    HW1 9251   2.824   1.528   2.287
 2865SOL    HW2 9252   2.866   1.476   2.437
 2866SOL     OW 9253   2.213   1.801   2.715
 2866SOL    HW1 9254   2.263   1.715   2.721
 2866SOL    HW2 9255   2.278   1.878   2.712
 2867SOL     OW 9256   3.657   1.066   2.735
 2867SOL    HW1 9257   3.595   1.051   2.659
 2867SOL    HW2 9258   3.605   1.077   2.820
 2868SOL     OW 9259   3.089   1.550   3.368
 2868SOL    HW1 9260   3.095   1.473   3.432
 2868SOL    HW2 9261   3.037   1.524   3.288
 2869SOL     OW 9262   2.183   0.943   2.104
 2869SOL    HW1 9263   2.265   0.982   2.062
 2869SOL    HW2 9264   2.156   0.861   2.055
 2870SOL     OW 9265   3.320   0.735   2.590
 2870SOL    HW1 9266   3.315   0.670   2.665
 2870SOL    HW2 9267   3.400   0.794   2.603
 2871SOL     OW 9268   2.323   1.266   3.589
 2871SOL    HW1 9269   2.273   1.267   3.503
 2871SOL    HW2 9270   2.260   1.248   3.665
 2872SOL     OW 9271   2.973   1.776   2.099
 2872SOL    HW1 9272   2.913   1.714   2.149
 2872SOL    HW2 9273   3.004   1.732   2.014
 2873SOL     OW 9274   2.064   0.285   3.360
 2873SOL    HW1 9275   1.984   0.345   3.347
 2873SOL    HW2 9276   2.054   0.236   3.446
 2874SOL     OW 9277   3.494   1.377   1.943
 2874SOL    HW1 9278   3.462   1.471   1.933
 2874SOL    HW2 9279   3.418   1.314   1.931
 2875SOL     OW 9280   2.326   1.743   2.185
 2875SOL    HW1 9281   2.359   1.782   2.271
 2875SOL    HW2 9282   2.402   1.736   2.120
 2876SOL     OW 9283   3.262   0.107   2.288
 2876SOL    HW1 9284   3.238   0.070   2.198
 2876SOL    HW2 9285   3.361   0.123   2.292
 2877SOL     OW 9286   2.111   1.785   3.103
 2877SOL    HW1 9287   2.168   1.720   3.153
 2877SOL    HW2 9288   2.095   1.752   3.010
 2878SOL     OW 9289   2.802   1.698   2.766
 2878SOL    HW1 9290   2.882   1.641   2.787
 2878SOL    HW2 9291   2.753   1.658   2.689
 2879SOL     OW 9292   2.244   0.700   2.342
 2879SOL    HW1 9293   2.289   0.610   2.339
 2879SOL    HW2 9294   2.150   0.689   2.375
 2880SOL     OW 9295   3.409   0.222   3.591
 2880SOL    HW1 9296   3.404   0.259   3.683
 2880SOL    HW2 9297   3.337   0.153   3.579
 2881SOL     OW 9298   2.476   0.122   1.979
 2881SOL    HW1 9299   2.574   0.100   1.986
 2881SOL    HW2 9300   2.445   0.105   1.886
 2882SOL     OW 9301   2.643   0.264   3.611
 2882SOL    HW1 9302   2.710   0.203   3.654
 2882SOL    HW2 9303   2.570   0.283   3.676
 2883SOL     OW 9304   2.750   1.514   3.057
 2883SOL    HW1 9305   2.727   1.489   2.963
 2883SOL    HW2 9306   2.811   1.445   3.096
 2884SOL     OW 9307   3.213   0.590   3.295
 2884SOL    HW1 9308   3.241   0.547   3.380
 2884SOL    HW2 9309   3.238   0.686   3.296
 2885SOL     OW 9310   2.665   1.402   2.786
 2885SOL    HW1 9311   2.755   1.416   2.744
 2885SOL    HW2 9312   2.594   1.404   2.715
 2886SOL     OW 9313   2.784   0.503   2.761
 2886SOL    HW1 9314   2.759   0.494   2.665
 2886SOL    HW2 9315   2.832   0.421   2.792
 2887SOL     OW 9316   2.401   0.064   2.374
 2887SOL    HW1 9317   2.320   0.065   2.432
 2887SOL    HW2 9318   2.404   0.147   2.319
 2888SOL     OW 9319   3.296   1.188   1.903
 2888SOL    HW1 9320   3.328   1.112   1.960
 2888SOL    HW2 9321   3.204   1.215   1.933
 2889SOL     OW 9322   2.159   0.035   2.033
 2889SOL    HW1 9323   2.208   0.119   2.012
 2889SOL    HW2 9324   2.221  -0.030   2.078
 2890SOL     OW 9325   2.797   0.236   2.342
 2890SOL    HW1 9326   2.749   0.277   2.264
 2890SOL    HW2 9327   2.896   0.234   2.323
 2891SOL     OW 9328   2.938   0.683   3.326
 2891SOL    HW1 9329   2.858   0.622   3.329
 2891SOL    HW2 9330   3.019   0.630   3.302
 2892SOL     OW 9331   3.089   1.570   2.655
 2892SOL    HW1 9332   3.110   1.644   2.590
 2892SOL    HW2 9333   3.157   1.570   2.728
 2893SOL     OW 9334   2.321   1.152   2.603
 2893SOL    HW1 9335   2.250   1.125   2.668
 2893SOL    HW2 9336   2.295   1.124   2.510
 2894SOL     OW 9337   3.133   1.797   2.453
 2894SOL    HW1 9338   3.177   1.861   2.389
 2894SOL    HW2 9339   3.083   1.849   2.523
 2895SOL     OW 9340   2.894   0.549   1.878
 2895SOL    HW1 9341   2.853   0.631   1.839
 2895SOL    HW2 9342   2.958   0.575   1.951
 2896SOL     OW 9343   1.940   0.556   3.248
 2896SOL    HW1 9344   2.032   0.555   3.207
 2896SOL    HW2 9345   1.934   0.630   3.315
 2897SOL     OW 9346   2.423   0.222   3.009
 2897SOL    HW1 9347   2.461   0.138   3.046
 2897SOL    HW2 9348   2.335   0.241   3.053
 2898SOL     OW 9349   2.728   0.454   2.504
 2898SOL    HW1 9350   2.696   0.526   2.442
 2898SOL    HW2 9351   2.752   0.373   2.451
 2899SOL     OW 9352   2.879   0.039   2.615
 2899SOL    HW1 9353   2.807   0.044   2.546
 2899SOL    HW2 9354   2.855  -0.030   2.684
 2900SOL     OW 9355   3.291   1.173   2.729
 2900SOL    HW1 9356   3.236   1.089   2.722
 2900SOL    HW2 9357   3.317   1.202   2.637
 2901SOL     OW 9358   3.328   0.590   2.854
 2901SOL    HW1 9359   3.298   0.495   2.861
 2901SOL    HW2 9360   3.401   0.606   2.920
 2902SOL     OW 9361   3.719   0.833   2.239
 2902SOL    HW1 9362   3.761   0.769   2.303
 2902SOL    HW2 9363   3.681   0.782   2.161
 2903SOL     OW 9364   2.350   1.385   2.036
 2903SOL    HW1 9365   2.263   1.370   2.083
 2903SOL    HW2 9366   2.333   1.411   1.941
 2904SOL     OW 9367   3.526   1.280   2.519
 2904SOL    HW1 9368   3.625   1.288   2.533
 2904SOL    HW2 9369   3.481   1.364   2.550
 2905SOL     OW 9370   3.252   0.575   1.940
 2905SOL    HW1 9371   3.198   0.554   2.021
 2905SOL    HW2 9372   3.343   0.534   1.949
 2906SOL     OW 9373   2.389   0.256   2.190
 2906SOL    HW1 9374   2.416   0.197   2.115
 2906SOL    HW2 9375   2.389   0.351   2.159
 2907SOL     OW 9376   3.616   1.223   3.450
 2907SOL    HW1 9377   3.707   1.184   3.437
 2907SOL    HW2 9378   3.624   1.319   3.474
 2908SOL     OW 9379   2.926   1.347   3.202
 2908SOL    HW1 9380   2.846   1.324   3.257
 2908SOL    HW2 9381   3.009   1.321   3.251
 2909SOL     OW 9382   3.454   1.629   3.487
 2909SOL    HW1 9383   3.481   1.663   3.397
 2909SOL    HW2 9384   3.533   1.591   3.533
 2910SOL     OW 9385   2.973   1.195   2.962
 2910SOL    HW1 9386   2.933   1.239   3.043
 2910SOL    HW2 9387   2.932   1.232   2.879
 2911SOL     OW 9388   3.500   1.099   2.941
 2911SOL    HW1 9389   3.505   1.180   3.000
 2911SOL    HW2 9390   3.414   1.101   2.890
 2912SOL     OW 9391   2.777   0.089   3.264
 2912SOL    HW1 9392   2.802   0.069   3.169
 2912SOL    HW2 9393   2.849   0.145   3.306
 2913SOL     OW 9394   2.842   1.116   3.581
 2913SOL    HW1 9395   2.743   1.122   3.591
 2913SOL    HW2 9396   2.865   1.036   3.525
 2914SOL     OW 9397   2.567   1.050   2.230
 2914SOL    HW1 9398   2.553   1.057   2.329
 2914SOL    HW2 9399   2.651   0.999   2.212
 2915SOL     OW 9400   2.272   0.813   3.113
 2915SOL    HW1 9401   2.358   0.825   3.163
 2915SOL    HW2 9402   2.230   0.726   3.140
 2916SOL     OW 9403   3.136   0.386   3.124
 2916SOL    HW1 9404   3.157   0.460   3.188
 2916SOL    HW2 9405   3.047   0.403   3.081
 2917SOL     OW 9406   1.926   1.564   3.193
 2917SOL    HW1 9407   1.880   1.646   3.159
 2917SOL    HW2 9408   2.024   1.583   3.202
 2918SOL     OW 9409   2.229   1.100   2.363
 2918SOL    HW1 9410   2.222   1.183   2.307
 2918SOL    HW2 9411   2.233   1.020   2.303
 2919SOL     OW 9412   2.428   0.537   2.727
 2919SOL    HW1 9413   2.440   0.603   2.653
 2919SOL    HW2 9414   2.474   0.571   2.810
 2920SOL     OW 9415   3.114   1.348   2.250
 2920SOL    HW1 9416   3.164   1.425   2.290
 2920SOL    HW2 9417   3.019   1.350   2.282
 2921SOL     OW 9418   3.134   1.445   3.004
 2921SOL    HW1 9419   3.181   1.458   3.091
 2921SOL    HW2 9420   3.068   1.371   3.013
 2922SOL     OW 9421   3.444   0.639   2.334
 2922SOL    HW1 9422   3.413   0.700   2.407
 2922SOL    HW2 9423   3.494   0.691   2.265
 2923SOL     OW 9424   2.216   1.510   3.191
 2923SOL    HW1 9425   2.195   1.466   3.104
 2923SOL    HW2 9426   2.313   1.536   3.194
 2924SOL     OW 9427   2.264   0.751   3.460
 2924SOL    HW1 9428   2.332   0.806   3.413
 2924SOL    HW2 9429   2.304   0.663   3.487
 2925SOL     OW 9430   3.449   0.779   3.532
 2925SOL    HW1 9431   3.357   0.817   3.527
 2925SOL    HW2 9432   3.509   0.826   3.467
 2926SOL     OW 9433   2.875   0.105   3.632
 2926SOL    HW1 9434   2.881   0.190   3.580
 2926SOL    HW2 9435   2.907   0.029   3.575
 2927SOL     OW 9436   2.366   0.050   3.602
 2927SOL    HW1 9437   2.324  -0.007   3.532
 2927SOL    HW2 9438   2.300   0.119   3.634
 2928SOL     OW 9439   2.435   0.870   2.891
 2928SOL    HW1 9440   2.479   0.959   2.882
 2928SOL    HW2 9441   2.372   0.870   2.968
 2929SOL     OW 9442   3.222   0.862   2.907
 2929SOL    HW1 9443   3.147   0.862   2.841
 2929SOL    HW2 9444   3.259   0.770   2.916
 2930SOL     OW 9445   3.071   0.525   2.137
 2930SOL    HW1 9446   3.084   0.441   2.191
 2930SOL    HW2 9447   3.042   0.599   2.197
 2931SOL     OW 9448   2.169   0.213   3.093
 2931SOL    HW1 9449   2.146   0.250   3.183
 2931SOL    HW2 9450   2.139   0.118   3.087
 2932SOL     OW 9451   1.899   1.310   3.144
 2932SOL    HW1 9452   1.952   1.261   3.212
 2932SOL    HW2 9453   1.921   1.408   3.149
 2933SOL     OW 9454   2.594   0.634   2.926
 2933SOL    HW1 9455   2.653   0.608   2.850
 2933SOL    HW2 9456   2.566   0.730   2.915
 2934SOL     OW 9457   3.590   0.935   3.716
 2934SOL    HW1 9458   3.544   0.928   3.627
 2934SOL    HW2 9459   3.528   0.979   3.782
 2935SOL     OW 9460   2.169   0.063   2.480
 2935SOL    HW1 9461   2.158   0.157   2.513
 2935SOL    HW2 9462   2.164   0.000   2.557
 2936SOL     OW 9463   3.484   0.367   2.236
 2936SOL    HW1 9464   3.486   0.291   2.300
 2936SOL    HW2 9465   3.436   0.444   2.276
 2937SOL     OW 9466   2.885   0.766   2.828
 2937SOL    HW1 9467   2.900   0.787   2.924
 2937SOL    HW2 9468   2.855   0.671   2.819
 2938SOL     OW 9469   2.842   1.573   3.562
 2938SOL    HW1 9470   2.822   1.617   3.474
 2938SOL    HW2 9471   2.881   1.482   3.546
 2939SOL     OW 9472   3.721   1.518   3.467
 2939SOL    HW1 9473   3.735   1.545   3.372
 2939SOL    HW2 9474   3.804   1.540   3.520
 2940SOL     OW 9475   2.212   0.898   3.666
 2940SOL    HW1 9476   2.288   0.942   3.714
 2940SOL    HW2 9477   2.247   0.851   3.584
 2941SOL     OW 9478   3.402   0.274   1.987
 2941SOL    HW1 9479   3.341   0.199   2.010
 2941SOL    HW2 9480   3.424   0.326   2.070
 2942SOL     OW 9481   3.165   0.838   1.904
 2942SOL    HW1 9482   3.199   0.745   1.919
 2942SOL    HW2 9483   3.183   0.865   1.809
 2943SOL     OW 9484   2.930   1.333   2.711
 2943SOL    HW1 9485   2.937   1.249   2.656
 2943SOL    HW2 9486   2.992   1.402   2.675
 2944SOL     OW 9487   2.181   0.810   2.811
 2944SOL    HW1 9488   2.274   0.846   2.816
 2944SOL    HW2 9489   2.175   0.725   2.863
 2945SOL     OW 9490   2.201   0.509   2.868
 2945SOL    HW1 9491   2.149   0.426   2.851
 2945SOL    HW2 9492   2.278   0.514   2.804
 2946SOL     OW 9493   3.000   0.380   3.540
 2946SOL    HW1 9494   2.955   0.443   3.604
 2946SOL    HW2 9495   3.093   0.411   3.523
 2947SOL     OW 9496   3.022   0.207   3.339
 2947SOL    HW1 9497   3.022   0.271   3.416
 2947SOL    HW2 9498   3.050   0.255   3.256
 2948SOL     OW 9499   1.870   1.326   2.062
 2948SOL    HW1 9500   1.777   1.347   2.031
 2948SOL    HW2 9501   1.880   1.227   2.075
 2949SOL     OW 9502   1.950   1.801   2.789
 2949SOL    HW1 9503   1.908   1.715   2.762
 2949SOL    HW2 9504   2.044   1.804   2.755
 2950SOL     OW 9505   2.366   1.568   2.772
 2950SOL    HW1 9506   2.432   1.642   2.781
 2950SOL    HW2 9507   2.410   1.489   2.730
 2951SOL     OW 9508   2.864   0.796   3.100
 2951SOL    HW1 9509   2.905   0.764   3.186
 2951SOL    HW2 9510   2.768   0.769   3.097
 2952SOL     OW 9511   1.902   0.544   2.976
 2952SOL    HW1 9512   1.987   0.511   2.935
 2952SOL    HW2 9513   1.915   0.559   3.074
 2953SOL     OW 9514   2.051   0.520   3.584
 2953SOL    HW1 9515   2.110   0.480   3.514
 2953SOL    HW2 9516   1.993   0.591   3.543
 2954SOL     OW 9517   3.231   0.950   3.522
 2954SOL    HW1 9518   3.270   1.039   3.542
 2954SOL    HW2 9519   3.241   0.930   3.425
 2955SOL     OW 9520   2.677   0.572   2.187
 2955SOL    HW1 9521   2.684   0.483   2.141
 2955SOL    HW2 9522   2.583   0.606   2.179
 2956SOL     OW 9523   3.519   0.604   3.068
 2956SOL    HW1 9524   3.481   0.535   3.130
 2956SOL    HW2 9525   3.601   0.568   3.024
 2957SOL     OW 9526   2.114   1.564   3.606
 2957SOL    HW1 9527   2.084   1.621   3.682
 2957SOL    HW2 9528   2.107   1.467   3.632
 2958SOL     OW 9529   2.533   0.464   3.131
 2958SOL    HW1 9530   2.499   0.375   3.101
 2958SOL    HW2 9531   2.559   0.518   3.051
 2959SOL     OW 9532   2.792   1.678   3.327
 2959SOL    HW1 9533   2.768   1.660   3.232
 2959SOL    HW2 9534   2.822   1.772   3.337
 2960SOL     OW 9535   2.335   0.500   2.053
 2960SOL    HW1 9536   2.396   0.580   2.057
 2960SOL    HW2 9537   2.240   0.531   2.060
 2961SOL     OW 9538   2.021   1.137   3.328
 2961SOL    HW1 9539   2.043   1.076   3.404
 2961SOL    HW2 9540   2.031   1.088   3.242
 2962SOL     OW 9541   3.209   1.059   3.096
 2962SOL    HW1 9542   3.233   0.996   3.022
 2962SOL    HW2 9543   3.119   1.099   3.078
 2963SOL     OW 9544   3.164   0.855   2.171
 2963SOL    HW1 9545   3.078   0.824   2.213
 2963SOL    HW2 9546   3.160   0.841   2.072
 2964SOL     OW 9547   3.621   1.747   3.016
 2964SOL    HW1 9548   3.682   1.777   2.943
 2964SOL    HW2 9549   3.583   1.658   2.994
 2965SOL     OW 9550   3.114   1.731   2.990
 2965SOL    HW1 9551   3.198   1.736   2.936
 2965SOL    HW2 9552   3.091   1.635   3.008
 2966SOL     OW 9553   1.945   1.258   2.884
 2966SOL    HW1 9554   1.940   1.257   2.984
 2966SOL    HW2 9555   1.862   1.217   2.846
 2967SOL     OW 9556   2.550   1.662   3.578
 2967SOL    HW1 9557   2.494   1.743   3.587
 2967SOL    HW2 9558   2.602   1.666   3.492
 2968SOL     OW 9559   3.588   0.135   2.385
 2968SOL    HW1 9560   3.661   0.118   2.318
 2968SOL    HW2 9561   3.557   0.048   2.423
 2969SOL     OW 9562   3.250   1.573   2.339
 2969SOL    HW1 9563   3.317   1.585   2.265
 2969SOL    HW2 9564   3.210   1.662   2.362
 2970SOL     OW 9565   1.992   1.794   3.713
 2970SOL    HW1 9566   1.951   1.720   3.766
 2970SOL    HW2 9567   2.056   1.845   3.771
 2971SOL     OW 9568   3.142   0.927   2.534
 2971SOL    HW1 9569   3.202   0.846   2.536
 2971SOL    HW2 9570   3.182   0.996   2.474
 2972SOL     OW 9571   2.692   1.273   3.284
 2972SOL    HW1 9572   2.687   1.306   3.379
 2972SOL    HW2 9573   2.606   1.292   3.238
 2973SOL     OW 9574   2.534   1.616   2.016
 2973SOL    HW1 9575   2.543   1.626   1.917
 2973SOL    HW2 9576   2.494   1.527   2.037
 2974SOL     OW 9577   3.512   1.720   3.256
 2974SOL    HW1 9578   3.565   1.730   3.172
 2974SOL    HW2 9579   3.485   1.810   3.290
 2975SOL     OW 9580   3.703   0.175   2.825
 2975SOL    HW1 9581   3.742   0.090   2.789
 2975SOL    HW2 9582   3.605   0.177   2.806
 2976SOL     OW 9583   2.125   0.326   2.582
 2976SOL    HW1 9584   2.046   0.377   2.548
 2976SOL    HW2 9585   2.116   0.311   2.680
 2977SOL     OW 9586   3.056   1.612   1.893
 2977SOL    HW1 9587   3.062   1.519   1.930
 2977SOL    HW2 9588   2.997   1.612   1.813
 2978SOL     OW 9589   2.684   1.002   3.234
 2978SOL    HW1 9590   2.724   1.001   3.142
 2978SOL    HW2 9591   2.694   1.094   3.274
 2979SOL     OW 9592   2.778   0.910   2.153
 2979SOL    HW1 9593   2.841   0.948   2.085
 2979SOL    HW2 9594   2.818   0.827   2.192
 2980SOL     OW 9595   3.366   1.607   1.906
 2980SOL    HW1 9596   3.274   1.644   1.913
 2980SOL    HW2 9597   3.404   1.627   1.816
 2981SOL     OW 9598   2.234   1.288   3.352
 2981SOL    HW1 9599   2.221   1.381   3.318
 2981SOL    HW2 9600   2.150   1.236   3.339
 2982SOL     OW 9601   3.476   1.292   3.151
 2982SOL    HW1 9602   3.536   1.295   3.231
 2982SOL    HW2 9603   3.401   1.356   3.164
 2983SOL     OW 9604   2.901   1.098   2.558
 2983SOL    HW1 9605   2.831   1.051   2.612
 2983SOL    HW2 9606   2.960   1.030   2.515
 2984SOL     OW 9607   2.876   0.236   2.833
 2984SOL    HW1 9608   2.868   0.200   2.740
 2984SOL    HW2 9609   2.874   0.160   2.898
 2985SOL     OW 9610   2.452   1.487   2.353
 2985SOL    HW1 9611   2.494   1.429   2.283
 2985SOL    HW2 9612   2.408   1.566   2.309
 2986SOL     OW 9613   3.571   0.385   3.243
 2986SOL    HW1 9614   3.644   0.454   3.247
 2986SOL    HW2 9615   3.599   0.310   3.184
 2987SOL     OW 9616   2.117   1.348   2.152
 2987SOL    HW1 9617   2.021   1.349   2.125
 2987SOL    HW2 9618   2.129   1.401   2.236
 2988SOL     OW 9619   1.967   1.013   3.588
 2988SOL    HW1 9620   1.890   0.980   3.642
 2988SOL    HW2 9621   2.052   0.983   3.630
 2989SOL     OW 9622   2.534   0.203   3.351
 2989SOL    HW1 9623   2.624   0.187   3.311
 2989SOL    HW2 9624   2.542   0.208   3.450
 2990SOL     OW 9625   1.937   0.345   1.895
 2990SOL    HW1 9626   1.845   0.317   1.866
 2990SOL    HW2 9627   1.968   0.422   1.839
 2991SOL     OW 9628   3.302   0.856   3.260
 2991SOL    HW1 9629   3.245   0.908   3.197
 2991SOL    HW2 9630   3.398   0.868   3.236
 2992SOL     OW 9631   1.934   0.166   2.180
 2992SOL    HW1 9632   1.917   0.249   2.126
 2992SOL    HW2 9633   2.024   0.129   2.158
 2993SOL     OW 9634   3.045   1.335   1.981
 2993SOL    HW1 9635   2.946   1.324   1.983
 2993SOL    HW2 9636   3.079   1.350   2.074
 2994SOL     OW 9637   2.475   0.842   3.293
 2994SOL    HW1 9638   2.531   0.923   3.276
 2994SOL    HW2 9639   2.534   0.762   3.296
 2995SOL     OW 9640   3.355   1.767   2.821
 2995SOL    HW1 9641   3.388   1.831   2.752
 2995SOL    HW2 9642   3.421   1.761   2.896
 2996SOL     OW 9643   2.578   0.565   3.570
 2996SOL    HW1 9644   2.597   0.630   3.644
 2996SOL    HW2 9645   2.638   0.485   3.579
 2997SOL     OW 9646   3.312   1.220   3.495
 2997SOL    HW1 9647   3.303   1.210   3.594
 2997SOL    HW2 9648   3.408   1.213   3.469
 2998SOL     OW 9649   2.252   1.741   3.422
 2998SOL    HW1 9650   2.161   1.782   3.420
 2998SOL    HW2 9651   2.245   1.647   3.454
 2999SOL     OW 9652   3.536   0.883   3.116
 2999SOL    HW1 9653   3.509   0.794   3.079
 2999SOL    HW2 9654   3.537   0.951   3.043
 3000SOL     OW 9655   3.087   0.325   2.311
 3000SOL    HW1 9656   3.152   0.251   2.300
 3000SOL    HW2 9657   3.107   0.375   2.395
 3001SOL     OW 9658   2.456   0.745   2.514
 3001SOL    HW1 9659   2.506   0.830   2.495
 3001SOL    HW2 9660   2.368   0.747   2.466
 3002SOL     OW 9661   3.639   0.342   3.504
 3002SOL    HW1 9662   3.622   0.373   3.410
 3002SOL    HW2 9663   3.555   0.305   3.542
 3003SOL     OW 9664   3.592   0.934   3.379
 3003SOL    HW1 9665   3.630   1.025   3.394
 3003SOL    HW2 9666   3.584   0.917   3.280
 3004SOL     OW 9667   2.721   1.374   1.878
 3004SOL    HW1 9668   2.675   1.389   1.966
 3004SOL    HW2 9669   2.765   1.459   1.848
 3005SOL     OW 9670   2.523   1.790   2.815
 3005SOL    HW1 9671   2.477   1.878   2.802
 3005SOL    HW2 9672   2.622   1.802   2.808
 3006SOL     OW 9673   2.721   0.956   2.723
 3006SOL    HW1 9674   2.775   0.887   2.771
 3006SOL    HW2 9675   2.689   1.025   2.789
 3007SOL     OW 9676   2.945   0.984   1.949
 3007SOL    HW1 9677   2.922   1.037   1.867
 3007SOL    HW2 9678   3.026   0.928   1.930
 3008SOL     OW 9679   3.723   1.569   2.713
 3008SOL    HW1 9680   3.652   1.557   2.643
 3008SOL    HW2 9681   3.724   1.490   2.773
 3009SOL     OW 9682   2.083   1.314   3.706
 3009SOL    HW1 9683   2.018   1.241   3.685
 3009SOL    HW2 9684   2.087   1.328   3.804
 3010SOL     OW 9685   1.941   1.240   2.515
 3010SOL    HW1 9686   1.940   1.193   2.603
 3010SOL    HW2 9687   2.023   1.212   2.464
 3011SOL     OW 9688   2.534   1.391   3.486
 3011SOL    HW1 9689   2.456   1.341   3.524
 3011SOL    HW2 9690   2.531   1.486   3.517
 3012SOL     OW 9691   3.686   0.192   3.089
 3012SOL    HW1 9692   3.682   0.102   3.133
 3012SOL    HW2 9693   3.689   0.181   2.990
 3013SOL     OW 9694   2.290   0.424   2.382
 3013SOL    HW1 9695   2.320   0.352   2.320
 3013SOL    HW2 9696   2.251   0.384   2.465
 3014SOL     OW 9697   3.567   1.487   2.966
 3014SOL    HW1 9698   3.474   1.462   2.939
 3014SOL    HW2 9699   3.593   1.437   3.048
 3015SOL     OW 9700   2.179   0.547   3.142
 3015SOL    HW1 9701   2.217   0.488   3.214
 3015SOL    HW2 9702   2.219   0.521   3.054
 3016SOL     OW 9703   2.674   1.586   2.549
 3016SOL    HW1 9704   2.706   1.596   2.455
 3016SOL    HW2 9705   2.595   1.524   2.551
 3017SOL     OW 9706   3.286   0.214   2.974
 3017SOL    HW1 9707   3.338   0.149   3.029
 3017SOL    HW2 9708   3.237   0.277   3.035
 3018SOL     OW 9709   2.863   0.034   3.016
 3018SOL    HW1 9710   2.800  -0.038   2.985
 3018SOL    HW2 9711   2.956  -0.002   3.016
 3019SOL     OW 9712   2.632   1.330   2.163
 3019SOL    HW1 9713   2.586   1.243   2.180
 3019SOL    HW2 9714   2.723   1.327   2.204
 3020SOL     OW 9715   2.480   1.567   3.146
 3020SOL    HW1 9716   2.475   1.649   3.203
 3020SOL    HW2 9717   2.569   1.564   3.101
 3021SOL     OW 9718   3.214   0.052   2.030
 3021SOL    HW1 9719   3.249   0.011   1.946
 3021SOL    HW2 9720   3.124   0.014   2.050
 3022SOL     OW 9721   3.162   0.453   2.553
 3022SOL    HW1 9722   3.103   0.533   2.557
 3022SOL    HW2 9723   3.177   0.418   2.646
 3023SOL     OW 9724   3.455   0.221   2.744
 3023SOL    HW1 9725   3.371   0.220   2.798
 3023SOL    HW2 9726   3.457   0.304   2.688
 3024SOL     OW 9727   1.901   1.077   2.162
 3024SOL    HW1 9728   2.000   1.066   2.153
 3024SOL    HW2 9729   1.861   0.991   2.194
 3025SOL     OW 9730   2.737   1.646   2.199
 3025SOL    HW1 9731   2.660   1.611   2.145
 3025SOL    HW2 9732   2.705   1.717   2.261
 3026SOL     OW 9733   2.092   0.628   3.837
 3026SOL    HW1 9734   1.999   0.626   3.874
 3026SOL    HW2 9735   2.093   0.589   3.745
 3027SOL     OW 9736   2.087   0.275   4.720
 3027SOL    HW1 9737   2.122   0.258   4.812
 3027SOL    HW2 9738   1.999   0.230   4.708
 3028SOL     OW 9739   1.881   0.368   4.371
 3028SOL    HW1 9740   1.799   0.411   4.410
 3028SOL    HW2 9741   1.853   0.295   4.308
 3029SOL     OW 9742   2.431   1.275   4.889
 3029SOL    HW1 9743   2.338   1.268   4.852
 3029SOL    HW2 9744   2.442   1.364   4.933
 3030SOL     OW 9745   3.417   1.511   4.427
 3030SOL    HW1 9746   3.360   1.495   4.508
 3030SOL    HW2 9747   3.358   1.521   4.347
 3031SOL     OW 9748   2.997   0.703   4.441
 3031SOL    HW1 9749   3.054   0.781   4.416
 3031SOL    HW2 9750   2.937   0.729   4.517
 3032SOL     OW 9751   3.617   0.607   3.955
 3032SOL    HW1 9752   3.605   0.594   3.856
 3032SOL    HW2 9753   3.587   0.526   4.004
 3033SOL     OW 9754   2.630   1.144   4.747
 3033SOL    HW1 9755   2.552   1.161   4.807
 3033SOL    HW2 9756   2.664   1.231   4.711
 3034SOL     OW 9757   2.712   0.798   5.547
 3034SOL    HW1 9758   2.708   0.874   5.612
 3034SOL    HW2 9759   2.734   0.834   5.456
 3035SOL     OW 9760   2.547   1.012   4.389
 3035SOL    HW1 9761   2.616   0.996   4.459
 3035SOL    HW2 9762   2.474   1.069   4.427
 3036SOL     OW 9763   2.548   1.161   5.527
 3036SOL    HW1 9764   2.608   1.240   5.541
 3036SOL    HW2 9765   2.462   1.192   5.486
 3037SOL     OW 9766   2.197   1.435   4.785
 3037SOL    HW1 9767   2.119   1.404   4.732
 3037SOL    HW2 9768   2.255   1.493   4.728
 3038SOL     OW 9769   3.322   1.505   5.063
 3038SOL    HW1 9770   3.346   1.599   5.089
 3038SOL    HW2 9771   3.306   1.451   5.145
 3039SOL     OW 9772   2.300   0.392   5.223
 3039SOL    HW1 9773   2.382   0.336   5.232
 3039SOL    HW2 9774   2.219   0.334   5.227
 3040SOL     OW 9775   3.465   0.447   4.461
 3040SOL    HW1 9776   3.391   0.493   4.411
 3040SOL    HW2 9777   3.516   0.515   4.514
 3041SOL     OW 9778   2.093   1.713   4.207
 3041SOL    HW1 9779   2.127   1.790   4.261
 3041SOL    HW2 9780   2.137   1.713   4.117
 3042SOL     OW 9781   2.989   1.341   5.414
 3042SOL    HW1 9782   3.036   1.341   5.502
 3042SOL    HW2 9783   2.941   1.254   5.403
 3043SOL     OW 9784   2.092   1.434   4.262
 3043SOL    HW1 9785   2.066   1.530   4.262
 3043SOL    HW2 9786   2.021   1.380   4.307
 3044SOL     OW 9787   2.102   1.091   4.610
 3044SOL    HW1 9788   2.116   1.007   4.662
 3044SOL    HW2 9789   2.047   1.155   4.665
 3045SOL     OW 9790   2.482   1.786   5.163
 3045SOL    HW1 9791   2.390   1.769   5.198
 3045SOL    HW2 9792   2.510   1.878   5.189
 3046SOL     OW 9793   2.468   0.964   3.847
 3046SOL    HW1 9794   2.475   1.048   3.793
 3046SOL    HW2 9795   2.514   0.977   3.935
 3047SOL     OW 9796   3.456   0.114   5.204
 3047SOL    HW1 9797   3.438   0.181   5.132
 3047SOL    HW2 9798   3.453   0.160   5.293
 3048SOL     OW 9799   1.984   0.643   4.287
 3048SOL    HW1 9800   1.939   0.555   4.304
 3048SOL    HW2 9801   1.983   0.697   4.371
 3049SOL     OW 9802   3.704   1.767   4.083
 3049SOL    HW1 9803   3.758   1.738   4.163
 3049SOL    HW2 9804   3.734   1.857   4.054
 3050SOL     OW 9805   1.889   1.596   3.841
 3050SOL    HW1 9806   1.870   1.500   3.862
 3050SOL    HW2 9807   1.856   1.654   3.916
 3051SOL     OW 9808   3.551   0.922   4.336
 3051SOL    HW1 9809   3.646   0.893   4.344
 3051SOL    HW2 9810   3.543   0.987   4.261
 3052SOL     OW 9811   3.503   1.108   4.156
 3052SOL    HW1 9812   3.589   1.110   4.104
 3052SOL    HW2 9813   3.517   1.155   4.244
 3053SOL     OW 9814   1.975   0.737   5.321
 3053SOL    HW1 9815   2.063   0.724   5.366
 3053SOL    HW2 9816   1.962   0.834   5.299
 3054SOL     OW 9817   2.475   1.365   4.450
 3054SOL    HW1 9818   2.426   1.278   4.459
 3054SOL    HW2 9819   2.452   1.408   4.363
 3055SOL     OW 9820   3.155   1.228   5.147
 3055SOL    HW1 9821   3.192   1.155   5.089
 3055SOL    HW2 9822   3.207   1.233   5.232
 3056SOL     OW 9823   2.671   0.004   4.226
 3056SOL    HW1 9824   2.711   0.095   4.217
 3056SOL    HW2 9825   2.571   0.012   4.232
 3057SOL     OW 9826   2.059   0.976   4.988
 3057SOL    HW1 9827   2.148   0.931   4.974
 3057SOL    HW2 9828   1.986   0.911   4.969
 3058SOL     OW 9829   3.387   0.999   3.914
 3058SOL    HW1 9830   3.324   0.923   3.927
 3058SOL    HW2 9831   3.435   1.017   4.000
 3059SOL     OW 9832   3.049   1.792   5.340
 3059SOL    HW1 9833   3.073   1.852   5.264
 3059SOL    HW2 9834   3.056   1.697   5.310
 3060SOL     OW 9835   2.179   0.251   5.525
 3060SOL    HW1 9836   2.250   0.322   5.531
 3060SOL    HW2 9837   2.091   0.290   5.553
 3061SOL     OW 9838   3.328   1.417   4.677
 3061SOL    HW1 9839   3.269   1.423   4.757
 3061SOL    HW2 9840   3.313   1.329   4.631
 3062SOL     OW 9841   3.529   1.714   4.296
 3062SOL    HW1 9842   3.488   1.691   4.208
 3062SOL    HW2 9843   3.511   1.640   4.361
 3063SOL     OW 9844   2.460   0.729   3.994
 3063SOL    HW1 9845   2.484   0.798   3.926
 3063SOL    HW2 9846   2.382   0.762   4.048
 3064SOL     OW 9847   3.143   0.345   4.668
 3064SOL    HW1 9848   3.057   0.295   4.655
 3064SOL    HW2 9849   3.205   0.291   4.724
 3065SOL     OW 9850   3.438   1.662   4.031
 3065SOL    HW1 9851   3.527   1.708   4.034
 3065SOL    HW2 9852   3.417   1.638   3.936
 3066SOL     OW 9853   2.669   0.605   5.189
 3066SOL    HW1 9854   2.622   0.602   5.278
 3066SOL    HW2 9855   2.618   0.550   5.123
 3067SOL     OW 9856   3.256   0.469   5.398
 3067SOL    HW1 9857   3.236   0.512   5.486
 3067SOL    HW2 9858   3.334   0.407   5.407
 3068SOL     OW 9859   2.835   0.890   5.296
 3068SOL    HW1 9860   2.881   0.806   5.267
 3068SOL    HW2 9861   2.779   0.924   5.221
 3069SOL     OW 9862   2.853   0.410   4.966
 3069SOL    HW1 9863   2.776   0.444   5.020
 3069SOL    HW2 9864   2.819   0.359   4.887
 3070SOL     OW 9865   2.903   0.701   4.153
 3070SOL    HW1 9866   2.929   0.697   4.249
 3070SOL    HW2 9867   2.818   0.650   4.139
 3071SOL     OW 9868   1.938   0.811   4.513
 3071SOL    HW1 9869   2.037   0.799   4.522
 3071SOL    HW2 9870   1.914   0.906   4.534
 3072SOL     OW 9871   1.992   1.821   5.295
 3072SOL    HW1 9872   1.982   1.806   5.394
 3072SOL    HW2 9873   1.906   1.857   5.259
 3073SOL     OW 9874   2.727   0.348   3.919
 3073SOL    HW1 9875   2.786   0.411   3.870
 3073SOL    HW2 9876   2.746   0.254   3.890
 3074SOL     OW 9877   3.581   0.585   5.555
 3074SOL    HW1 9878   3.555   0.674   5.519
 3074SOL    HW2 9879   3.579   0.517   5.482
 3075SOL     OW 9880   3.224   1.144   4.269
 3075SOL    HW1 9881   3.307   1.115   4.221
 3075SOL    HW2 9882   3.175   1.211   4.213
 3076SOL     OW 9883   2.412   0.196   4.609
 3076SOL    HW1 9884   2.407   0.191   4.709
 3076SOL    HW2 9885   2.414   0.292   4.580
 3077SOL     OW 9886   2.870   1.456   4.201
 3077SOL    HW1 9887   2.824   1.528   4.149
 3077SOL    HW2 9888   2.866   1.476   4.299
 3078SOL     OW 9889   2.213   1.801   4.577
 3078SOL    HW1 9890   2.263   1.715   4.583
 3078SOL    HW2 9891   2.278   1.878   4.574
 3079SOL     OW 9892   3.657   1.066   4.597
 3079SOL    HW1 9893   3.595   1.051   4.521
 3079SOL    HW2 9894   3.605   1.077   4.682
 3080SOL     OW 9895   3.089   1.550   5.230
 3080SOL    HW1 9896   3.095   1.473   5.294
 3080SOL    HW2 9897   3.037   1.524   5.150
 3081SOL     OW 9898   2.183   0.943   3.966
 3081SOL    HW1 9899   2.265   0.982   3.924
 3081SOL    HW2 9900   2.156   0.861   3.917
 3082SOL     OW 9901   3.320   0.735   4.452
 3082SOL    HW1 9902   3.315   0.670   4.527
 3082SOL    HW2 9903   3.400   0.794   4.465
 3083SOL     OW 9904   2.323   1.266   5.451
 3083SOL    HW1 9905   2.273   1.267   5.365
 3083SOL    HW2 9906   2.260   1.248   5.527
 3084SOL     OW 9907   2.064   0.285   5.222
 3084SOL    HW1 9908   1.984   0.345   5.209
 3084SOL    HW2 9909   2.054   0.236   5.308
 3085SOL     OW 9910   3.494   1.377   3.805
 3085SOL    HW1 9911   3.462   1.471   3.795
 3085SOL    HW2 9912   3.418   1.314   3.793
 3086SOL     OW 9913   2.326   1.743   4.047
 3086SOL    HW1 9914   2.359   1.782   4.133
 3086SOL    HW2 9915   2.402   1.736   3.982
 3087SOL     OW 9916   3.262   0.107   4.150
 3087SOL    HW1 9917   3.238   0.070   4.060
 3087SOL    HW2 9918   3.361   0.123   4.154
 3088SOL     OW 9919   2.111   1.785   4.965
 3088SOL    HW1 9920   2.168   1.720   5.015
 3088SOL    HW2 9921   2.095   1.752   4.872
 3089SOL     OW 9922   2.802   1.698   4.628
 3089SOL    HW1 9923   2.882   1.641   4.649
 3089SOL    HW2 9924   2.753   1.658   4.551
 3090SOL     OW 9925   2.244   0.700   4.204
 3090SOL    HW1 9926   2.289   0.610   4.201
 3090SOL    HW2 9927   2.150   0.689   4.237
 3091SOL     OW 9928   3.409   0.222   5.453
 3091SOL    HW1 9929   3.404   0.259   5.545
 3091SOL    HW2 9930   3.337   0.153   5.441
 3092SOL     OW 9931   2.476   0.122   3.841
 3092SOL    HW1 9932   2.574   0.100   3.848
 3092SOL    HW2 9933   2.445   0.105   3.748
 3093SOL     OW 9934   2.643   0.264   5.473
 3093SOL    HW1 9935   2.710   0.203   5.516
 3093SOL    HW2 9936   2.570   0.283   5.538
 3094SOL     OW 9937   2.750   1.514   4.919
 3094SOL    HW1 9938   2.727   1.489   4.825
 3094SOL    HW2 9939   2.811   1.445   4.958
 3095SOL     OW 9940   3.213   0.590   5.157
 3095SOL    HW1 9941   3.241   0.547   5.242
 3095SOL    HW2 9942   3.238   0.686   5.158
 3096SOL     OW 9943   2.665   1.402   4.648
 3096SOL    HW1 9944   2.755   1.416   4.606
 3096SOL    HW2 9945   2.594   1.404   4.577
 3097SOL     OW 9946   2.784   0.503   4.623
 3097SOL    HW1 9947   2.759   0.494   4.527
 3097SOL    HW2 9948   2.832   0.421   4.654
 3098SOL     OW 9949   2.401   0.064   4.236
 3098SOL    HW1 9950   2.320   0.065   4.294
 3098SOL    HW2 9951   2.404   0.147   4.181
 3099SOL     OW 9952   3.296   1.188   3.765
 3099SOL    HW1 9953   3.328   1.112   3.822
 3099SOL    HW2 9954   3.204   1.215   3.795
 3100SOL     OW 9955   2.159   0.035   3.895
 3100SOL    HW1 9956   2.208   0.119   3.874
 3100SOL    HW2 9957   2.221  -0.030   3.940
 3101SOL     OW 9958   2.797   0.236   4.204
 3101SOL    HW1 9959   2.749   0.277   4.126
 3101SOL    HW2 9960   2.896   0.234   4.185
 3102SOL     OW 9961   2.938   0.683   5.188
 3102SOL    HW1 9962   2.858   0.622   5.191
 3102SOL    HW2 9963   3.019   0.630   5.164
 3103SOL     OW 9964   3.089   1.570   4.517
 3103SOL    HW1 9965   3.110   1.644   4.452
 3103SOL    HW2 9966   3.157   1.570   4.590
 3104SOL     OW 9967   2.321   1.152   4.465
 3104SOL    HW1 9968   2.250   1.125   4.530
 3104SOL    HW2 9969   2.295   1.124   4.372
 3105SOL     OW 9970   3.133   1.797   4.315
 3105SOL    HW1 9971   3.177   1.861   4.251
 3105SOL    HW2 9972   3.083   1.849   4.385
 3106SOL     OW 9973   2.894   0.549   3.740
 3106SOL    HW1 9974   2.853   0.631   3.701
 3106SOL    HW2 9975   2.958   0.575   3.813
 3107SOL     OW 9976   1.940   0.556   5.110
 3107SOL    HW1 9977   2.032   0.555   5.069
 3107SOL    HW2 9978   1.934   0.630   5.177
 3108SOL     OW 9979   2.423   0.222   4.871
 3108SOL    HW1 9980   2.461   0.138   4.908
 3108SOL    HW2 9981   2.335   0.241   4.915
 3109SOL     OW 9982   2.728   0.454   4.366
 3109SOL    HW1 9983   2.696   0.526   4.304
 3109SOL    HW2 9984   2.752   0.373   4.313
 3110SOL     OW 9985   2.879   0.039   4.477
 3110SOL    HW1 9986   2.807   0.044   4.408
 3110SOL    HW2 9987   2.855  -0.030   4.546
 3111SOL     OW 9988   3.291   1.173   4.591
 3111SOL    HW1 9989   3.236   1.089   4.584
 3111SOL    HW2 9990   3.317   1.202   4.499
 3112SOL     OW 9991   3.328   0.590   4.716
 3112SOL    HW1 9992   3.298   0.495   4.723
 3112SOL    HW2 9993   3.401   0.606   4.782
 3113SOL     OW 9994   3.719   0.833   4.101
 3113SOL    HW1 9995   3.761   0.769   4.165
 3113SOL    HW2 9996   3.681   0.782   4.023
 3114SOL     OW 9997   2.350   1.385   3.898
 3114SOL    HW1 9998   2.263   1.370   3.945
 3114SOL    HW2 9999   2.333   1.411   3.803
 3115SOL     OW10000   3.526   1.280   4.381
 3115SOL    HW110001   3.625   1.288   4.395
 3115SOL    HW210002   3.481   1.364   4.412
 3116SOL     OW10003   3.252   0.575   3.802
 3116SOL    HW110004   3.198   0.554   3.883
 3116SOL    HW210005   3.343   0.534   3.811
 3117SOL     OW10006   2.389   0.256   4.052
 3117SOL    HW110007   2.416   0.197   3.977
 3117SOL    HW210008   2.389   0.351   4.021
 3118SOL     OW10009   3.616   1.223   5.312
 3118SOL    HW110010   3.707   1.184   5.299
 3118SOL    HW210011   3.624   1.319   5.336
 3119SOL     OW10012   2.926   1.347   5.064
 3119SOL    HW110013   2.846   1.324   5.119
 3119SOL    HW210014   3.009   1.321   5.113
 3120SOL     OW10015   3.454   1.629   5.349
 3120SOL    HW110016   3.481   1.663   5.259
 3120SOL    HW210017   3.533   1.591   5.395
 3121SOL     OW10018   2.973   1.195   4.824
 3121SOL    HW110019   2.933   1.239   4.905
 3121SOL    HW210020   2.932   1.232   4.741
 3122SOL     OW10021   3.500   1.099   4.803
 3122SOL    HW110022   3.505   1.180   4.862
 3122SOL    HW210023   3.414   1.101   4.752
 3123SOL     OW10024   2.777   0.089   5.126
 3123SOL    HW110025   2.802   0.069   5.031
 3123SOL    HW210026   2.849   0.145   5.168
 3124SOL     OW10027   2.842   1.116   5.443
 3124SOL    HW110028   2.743   1.122   5.453
 3124SOL    HW210029   2.865   1.036   5.387
 3125SOL     OW10030   2.567   1.050   4.092
 3125SOL    HW110031   2.553   1.057   4.191
 3125SOL    HW210032   2.651   0.999   4.074
 3126SOL     OW10033   2.272   0.813   4.975
 3126SOL    HW110034   2.358   0.825   5.025
 3126SOL    HW210035   2.230   0.726   5.002
 3127SOL     OW10036   3.136   0.386   4.986
 3127SOL    HW110037   3.157   0.460   5.050
 3127SOL    HW210038   3.047   0.403   4.943
 3128SOL     OW10039   1.926   1.564   5.055
 3128SOL    HW110040   1.880   1.646   5.021
 3128SOL    HW210041   2.024   1.583   5.064
 3129SOL     OW10042   2.229   1.100   4.225
 3129SOL    HW110043   2.222   1.183   4.169
 3129SOL    HW210044   2.233   1.020   4.165
 3130SOL     OW10045   2.428   0.537   4.589
 3130SOL    HW110046   2.440   0.603   4.515
 3130SOL    HW210047   2.474   0.571   4.672
 3131SOL     OW10048   3.114   1.348   4.112
 3131SOL    HW110049   3.164   1.425   4.152
 3131SOL    HW210050   3.019   1.350   4.144
 3132SOL     OW10051   3.134   1.445   4.866
 3132SOL    HW110052   3.181   1.458   4.953
 3132SOL    HW210053   3.068   1.371   4.875
 3133SOL     OW10054   3.444   0.639   4.196
 3133SOL    HW110055   3.413   0.700   4.269
 3133SOL    HW210056   3.494   0.691   4.127
 3134SOL     OW10057   2.216   1.510   5.053
 3134SOL    HW110058   2.195   1.466   4.966
 3134SOL    HW210059   2.313   1.536   5.056
 3135SOL     OW10060   2.264   0.751   5.322
 3135SOL    HW110061   2.332   0.806   5.275
 3135SOL    HW210062   2.304   0.663   5.349
 3136SOL     OW10063   3.449   0.779   5.394
 3136SOL    HW110064   3.357   0.817   5.389
 3136SOL    HW210065   3.509   0.826   5.329
 3137SOL     OW10066   2.875   0.105   5.494
 3137SOL    HW110067   2.881   0.190   5.442
 3137SOL    HW210068   2.907   0.029   5.437
 3138SOL     OW10069   2.366   0.050   5.464
 3138SOL    HW110070   2.324  -0.007   5.394
 3138SOL    HW210071   2.300   0.119   5.496
 3139SOL     OW10072   2.435   0.870   4.753
 3139SOL    HW110073   2.479   0.959   4.744
 3139SOL    HW210074   2.372   0.870   4.830
 3140SOL     OW10075   3.222   0.862   4.769
 3140SOL    HW110076   3.147   0.862   4.703
 3140SOL    HW210077   3.259   0.770   4.778
 3141SOL     OW10078   3.071   0.525   3.999
 3141SOL    HW110079   3.084   0.441   4.053
 3141SOL    HW210080   3.042   0.599   4.059
 3142SOL     OW10081   2.169   0.213   4.955
 3142SOL    HW110082   2.146   0.250   5.045
 3142SOL    HW210083   2.139   0.118   4.949
 3143SOL     OW10084   1.899   1.310   5.006
 3143SOL    HW110085   1.952   1.261   5.074
 3143SOL    HW210086   1.921   1.408   5.011
 3144SOL     OW10087   2.594   0.634   4.788
 3144SOL    HW110088   2.653   0.608   4.712
 3144SOL    HW210089   2.566   0.730   4.777
 3145SOL     OW10090   3.590   0.935   5.578
 3145SOL    HW110091   3.544   0.928   5.489
 3145SOL    HW210092   3.528   0.979   5.644
 3146SOL     OW10093   2.169   0.063   4.342
 3146SOL    HW110094   2.158   0.157   4.375
 3146SOL    HW210095   2.164   0.000   4.419
 3147SOL     OW10096   3.484   0.367   4.098
 3147SOL    HW110097   3.486   0.291   4.162
 3147SOL    HW210098   3.436   0.444   4.138
 3148SOL     OW10099   2.885   0.766   4.690
 3148SOL    HW110100   2.900   0.787   4.786
 3148SOL    HW210101   2.855   0.671   4.681
 3149SOL     OW10102   2.842   1.573   5.424
 3149SOL    HW110103   2.822   1.617   5.336
 3149SOL    HW210104   2.881   1.482   5.408
 3150SOL     OW10105   3.721   1.518   5.329
 3150SOL    HW110106   3.735   1.545   5.234
 3150SOL    HW210107   3.804   1.540   5.382
 3151SOL     OW10108   2.212   0.898   5.528
 3151SOL    HW110109   2.288   0.942   5.576
 3151SOL    HW210110   2.247   0.851   5.446
 3152SOL     OW10111   3.402   0.274   3.849
 3152SOL    HW110112   3.341   0.199   3.872
 3152SOL    HW210113   3.424   0.326   3.932
 3153SOL     OW10114   3.165   0.838   3.766
 3153SOL    HW110115   3.199   0.745   3.781
 3153SOL    HW210116   3.183   0.865   3.671
 3154SOL     OW10117   2.930   1.333   4.573
 3154SOL    HW110118   2.937   1.249   4.518
 3154SOL    HW210119   2.992   1.402   4.537
 3155SOL     OW10120   2.181   0.810   4.673
 3155SOL    HW110121   2.274   0.846   4.678
 3155SOL    HW210122   2.175   0.725   4.725
 3156SOL     OW10123   2.201   0.509   4.730
 3156SOL    HW110124   2.149   0.426   4.713
 3156SOL    HW210125   2.278   0.514   4.666
 3157SOL     OW10126   3.000   0.380   5.402
 3157SOL    HW110127   2.955   0.443   5.466
 3157SOL    HW210128   3.093   0.411   5.385
 3158SOL     OW10129   3.022   0.207   5.201
 3158SOL    HW110130   3.022   0.271   5.278
 3158SOL    HW210131   3.050   0.255   5.118
 3159SOL     OW10132   1.870   1.326   3.924
 3159SOL    HW110133   1.777   1.347   3.893
 3159SOL    HW210134   1.880   1.227   3.937
 3160SOL     OW10135   1.950   1.801   4.651
 3160SOL    HW110136   1.908   1.715   4.624
 3160SOL    HW210137   2.044   1.804   4.617
 3161SOL     OW10138   2.366   1.568   4.634
 3161SOL    HW110139   2.432   1.642   4.643
 3161SOL    HW210140   2.410   1.489   4.592
 3162SOL     OW10141   2.864   0.796   4.962
 3162SOL    HW110142   2.905   0.764   5.048
 3162SOL    HW210143   2.768   0.769   4.959
 3163SOL     OW10144   1.902   0.544   4.838
 3163SOL    HW110145   1.987   0.511   4.797
 3163SOL    HW210146   1.915   0.559   4.936
 3164SOL     OW10147   2.051   0.520   5.446
 3164SOL    HW110148   2.110   0.480   5.376
 3164SOL    HW210149   1.993   0.591   5.405
 3165SOL     OW10150   3.231   0.950   5.384
 3165SOL    HW110151   3.270   1.039   5.404
 3165SOL    HW210152   3.241   0.930   5.287
 3166SOL     OW10153   2.677   0.572   4.049
 3166SOL    HW110154   2.684   0.483   4.003
 3166SOL    HW210155   2.583   0.606   4.041
 3167SOL     OW10156   3.519   0.604   4.930
 3167SOL    HW110157   3.481   0.535   4.992
 3167SOL    HW210158   3.601   0.568   4.886
 3168SOL     OW10159   2.114   1.564   5.468
 3168SOL    HW110160   2.084   1.621   5.544
 3168SOL    HW210161   2.107   1.467   5.494
 3169SOL     OW10162   2.533   0.464   4.993
 3169SOL    HW110163   2.499   0.375   4.963
 3169SOL    HW210164   2.559   0.518   4.913
 3170SOL     OW10165   2.792   1.678   5.189
 3170SOL    HW110166   2.768   1.660   5.094
 3170SOL    HW210167   2.822   1.772   5.199
 3171SOL     OW10168   2.335   0.500   3.915
 3171SOL    HW110169   2.396   0.580   3.919
 3171SOL    HW210170   2.240   0.531   3.922
 3172SOL     OW10171   2.021   1.137   5.190
 3172SOL    HW110172   2.043   1.076   5.266
 3172SOL    HW210173   2.031   1.088   5.104
 3173SOL     OW10174   3.209   1.059   4.958
 3173SOL    HW110175   3.233   0.996   4.884
 3173SOL    HW210176   3.119   1.099   4.940
 3174SOL     OW10177   3.164   0.855   4.033
 3174SOL    HW110178   3.078   0.824   4.075
 3174SOL    HW210179   3.160   0.841   3.934
 3175SOL     OW10180   3.621   1.747   4.878
 3175SOL    HW110181   3.682   1.777   4.805
 3175SOL    HW210182   3.583   1.658   4.856
 3176SOL     OW10183   3.114   1.731   4.852
 3176SOL    HW110184   3.198   1.736   4.798
 3176SOL    HW210185   3.091   1.635   4.870
 3177SOL     OW10186   1.945   1.258   4.746
 3177SOL    HW110187   1.940   1.257   4.846
 3177SOL    HW210188   1.862   1.217   4.708
 3178SOL     OW10189   2.550   1.662   5.440
 3178SOL    HW110190   2.494   1.743   5.449
 3178SOL    HW210191   2.602   1.666   5.354
 3179SOL     OW10192   3.588   0.135   4.247
 3179SOL    HW110193   3.661   0.118   4.180
 3179SOL    HW210194   3.557   0.048   4.285
 3180SOL     OW10195   3.250   1.573   4.201
 3180SOL    HW110196   3.317   1.585   4.127
 3180SOL    HW210197   3.210   1.662   4.224
 3181SOL     OW10198   1.992   1.794   5.575
 3181SOL    HW110199   1.951   1.720   5.628
 3181SOL    HW210200   2.056   1.845   5.633
 3182SOL     OW10201   3.142   0.927   4.396
 3182SOL    HW110202   3.202   0.846   4.398
 3182SOL    HW210203   3.182   0.996   4.336
 3183SOL     OW10204   2.692   1.273   5.146
 3183SOL    HW110205   2.687   1.306   5.241
 3183SOL    HW210206   2.606   1.292   5.100
 3184SOL     OW10207   2.534   1.616   3.878
 3184SOL    HW110208   2.543   1.626   3.779
 3184SOL    HW210209   2.494   1.527   3.899
 3185SOL     OW10210   3.512   1.720   5.118
 3185SOL    HW110211   3.565   1.730   5.034
 3185SOL    HW210212   3.485   1.810   5.152
 3186SOL     OW10213   3.703   0.175   4.687
 3186SOL    HW110214   3.742   0.090   4.651
 3186SOL    HW210215   3.605   0.177   4.668
 3187SOL     OW10216   2.125   0.326   4.444
 3187SOL    HW110217   2.046   0.377   4.410
 3187SOL    HW210218   2.116   0.311   4.542
 3188SOL     OW10219   3.056   1.612   3.755
 3188SOL    HW110220   3.062   1.519   3.792
 3188SOL    HW210221   2.997   1.612   3.675
 3189SOL     OW10222   2.684   1.002   5.096
 3189SOL    HW110223   2.724   1.001   5.004
 3189SOL    HW210224   2.694   1.094   5.136
 3190SOL     OW10225   2.778   0.910   4.015
 3190SOL    HW110226   2.841   0.948   3.947
 3190SOL    HW210227   2.818   0.827   4.054
 3191SOL     OW10228   3.366   1.607   3.768
 3191SOL    HW110229   3.274   1.644   3.775
 3191SOL    HW210230   3.404   1.627   3.678
 3192SOL     OW10231   2.234   1.288   5.214
 3192SOL    HW110232   2.221   1.381   5.180
 3192SOL    HW210233   2.150   1.236   5.201
 3193SOL     OW10234   3.476   1.292   5.013
 3193SOL    HW110235   3.536   1.295   5.093
 3193SOL    HW210236   3.401   1.356   5.026
 3194SOL     OW10237   2.901   1.098   4.420
 3194SOL    HW110238   2.831   1.051   4.474
 3194SOL    HW210239   2.960   1.030   4.377
 3195SOL     OW10240   2.876   0.236   4.695
 3195SOL    HW110241   2.868   0.200   4.602
 3195SOL    HW210242   2.874   0.160   4.760
 3196SOL     OW10243   2.452   1.487   4.215
 3196SOL    HW110244   2.494   1.429   4.145
 3196SOL    HW210245   2.408   1.566   4.171
 3197SOL     OW10246   3.571   0.385   5.105
 3197SOL    HW110247   3.644   0.454   5.109
 3197SOL    HW210248   3.599   0.310   5.046
 3198SOL     OW10249   2.117   1.348   4.014
 3198SOL    HW110250   2.021   1.349   3.987
 3198SOL    HW210251   2.129   1.401   4.098
 3199SOL     OW10252   1.967   1.013   5.450
 3199SOL    HW110253   1.890   0.980   5.504
 3199SOL    HW210254   2.052   0.983   5.492
 3200SOL     OW10255   2.534   0.203   5.213
 3200SOL    HW110256   2.624   0.187   5.173
 3200SOL    HW210257   2.542   0.208   5.312
 3201SOL     OW10258   1.937   0.345   3.757
 3201SOL    HW110259   1.845   0.317   3.728
 3201SOL    HW210260   1.968   0.422   3.701
 3202SOL     OW10261   3.302   0.856   5.122
 3202SOL    HW110262   3.245   0.908   5.059
 3202SOL    HW210263   3.398   0.868   5.098
 3203SOL     OW10264   1.934   0.166   4.042
 3203SOL    HW110265   1.917   0.249   3.988
 3203SOL    HW210266   2.024   0.129   4.020
 3204SOL     OW10267   3.045   1.335   3.843
 3204SOL    HW110268   2.946   1.324   3.845
 3204SOL    HW210269   3.079   1.350   3.936
 3205SOL     OW10270   2.475   0.842   5.155
 3205SOL    HW110271   2.531   0.923   5.138
 3205SOL    HW210272   2.534   0.762   5.158
 3206SOL     OW10273   3.355   1.767   4.683
 3206SOL    HW110274   3.388   1.831   4.614
 3206SOL    HW210275   3.421   1.761   4.758
 3207SOL     OW10276   2.578   0.565   5.432
 3207SOL    HW110277   2.597   0.630   5.506
 3207SOL    HW210278   2.638   0.485   5.441
 3208SOL     OW10279   3.312   1.220   5.357
 3208SOL    HW110280   3.303   1.210   5.456
 3208SOL    HW210281   3.408   1.213   5.331
 3209SOL     OW10282   2.252   1.741   5.284
 3209SOL    HW110283   2.161   1.782   5.282
 3209SOL    HW210284   2.245   1.647   5.316
 3210SOL     OW10285   3.536   0.883   4.978
 3210SOL    HW110286   3.509   0.794   4.941
 3210SOL    HW210287   3.537   0.951   4.905
 3211SOL     OW10288   3.087   0.325   4.173
 3211SOL    HW110289   3.152   0.251   4.162
 3211SOL    HW210290   3.107   0.375   4.257
 3212SOL     OW10291   2.456   0.745   4.376
 3212SOL    HW110292   2.506   0.830   4.357
 3212SOL    HW210293   2.368   0.747   4.328
 3213SOL     OW10294   3.639   0.342   5.366
 3213SOL    HW110295   3.622   0.373   5.272
 3213SOL    HW210296   3.555   0.305   5.404
 3214SOL     OW10297   3.592   0.934   5.241
 3214SOL    HW110298   3.630   1.025   5.256
 3214SOL    HW210299   3.584   0.917   5.142
 3215SOL     OW10300   2.721   1.374   3.740
 3215SOL    HW110301   2.675   1.389   3.828
 3215SOL    HW210302   2.765   1.459   3.710
 3216SOL     OW10303   2.523   1.790   4.677
 3216SOL    HW110304   2.477   1.878   4.664
 3216SOL    HW210305   2.622   1.802   4.670
 3217SOL     OW10306   2.721   0.956   4.585
 3217SOL    HW110307   2.775   0.887   4.633
 3217SOL    HW210308   2.689   1.025   4.651
 3218SOL     OW10309   2.945   0.984   3.811
 3218SOL    HW110310   2.922   1.037   3.729
 3218SOL    HW210311   3.026   0.928   3.792
 3219SOL     OW10312   3.723   1.569   4.575
 3219SOL    HW110313   3.652   1.557   4.505
 3219SOL    HW210314   3.724   1.490   4.635
 3220SOL     OW10315   2.083   1.314   5.568
 3220SOL    HW110316   2.018   1.241   5.547
 3220SOL    HW210317   2.087   1.328   5.666
 3221SOL     OW10318   1.941   1.240   4.377
 3221SOL    HW110319   1.940   1.193   4.465
 3221SOL    HW210320   2.023   1.212   4.326
 3222SOL     OW10321   2.534   1.391   5.348
 3222SOL    HW110322   2.456   1.341   5.386
 3222SOL    HW210323   2.531   1.486   5.379
 3223SOL     OW10324   3.686   0.192   4.951
 3223SOL    HW110325   3.682   0.102   4.995
 3223SOL    HW210326   3.689   0.181   4.852
 3224SOL     OW10327   2.290   0.424   4.244
 3224SOL    HW110328   2.320   0.352   4.182
 3224SOL    HW210329   2.251   0.384   4.327
 3225SOL     OW10330   3.567   1.487   4.828
 3225SOL    HW110331   3.474   1.462   4.801
 3225SOL    HW210332   3.593   1.437   4.910
 3226SOL     OW10333   2.179   0.547   5.004
 3226SOL    HW110334   2.217   0.488   5.076
 3226SOL    HW210335   2.219   0.521   4.916
 3227SOL     OW10336   2.674   1.586   4.411
 3227SOL    HW110337   2.706   1.596   4.317
 3227SOL    HW210338   2.595   1.524   4.413
 3228SOL     OW10339   3.286   0.214   4.836
 3228SOL    HW110340   3.338   0.149   4.891
 3228SOL    HW210341   3.237   0.277   4.897
 3229SOL     OW10342   2.863   0.034   4.878
 3229SOL    HW110343   2.800  -0.038   4.847
 3229SOL    HW210344   2.956  -0.002   4.878
 3230SOL     OW10345   2.632   1.330   4.025
 3230SOL    HW110346   2.586   1.243   4.042
 3230SOL    HW210347   2.723   1.327   4.066
 3231SOL     OW10348   2.480   1.567   5.008
 3231SOL    HW110349   2.475   1.649   5.065
 3231SOL    HW210350   2.569   1.564   4.963
 3232SOL     OW10351   3.214   0.052   3.892
 3232SOL    HW110352   3.249   0.011   3.808
 3232SOL    HW210353   3.124   0.014   3.912
 3233SOL     OW10354   3.162   0.453   4.415
 3233SOL    HW110355   3.103   0.533   4.419
 3233SOL    HW210356   3.177   0.418   4.508
 3234SOL     OW10357   3.455   0.221   4.606
 3234SOL    HW110358   3.371   0.220   4.660
 3234SOL    HW210359   3.457   0.304   4.550
 3235SOL     OW10360   1.901   1.077   4.024
 3235SOL    HW110361   2.000   1.066   4.015
 3235SOL    HW210362   1.861   0.991   4.056
 3236SOL     OW10363   2.737   1.646   4.061
 3236SOL    HW110364   2.660   1.611   4.007
 3236SOL    HW210365   2.705   1.717   4.123
 3237SOL     OW10366   2.092   0.628   5.699
 3237SOL    HW110367   1.999   0.626   5.736
 3237SOL    HW210368   2.093   0.589   5.607
 3238SOL     OW10369   2.087   0.275   6.582
 3238SOL    HW110370   2.122   0.258   6.674
 3238SOL    HW210371   1.999   0.230   6.570
 3239SOL     OW10372   1.881   0.368   6.233
 3239SOL    HW110373   1.799   0.411   6.272
 3239SOL    HW210374   1.853   0.295   6.170
 3240SOL     OW10375   2.431   1.275   6.751
 3240SOL    HW110376   2.338   1.268   6.714
 3240SOL    HW210377   2.442   1.364   6.795
 3241SOL     OW10378   3.417   1.511   6.289
 3241SOL    HW110379   3.360   1.495   6.370
 3241SOL    HW210380   3.358   1.521   6.209
 3242SOL     OW10381   2.997   0.703   6.303
 3242SOL    HW110382   3.054   0.781   6.278
 3242SOL    HW210383   2.937   0.729   6.379
 3243SOL     OW10384   3.617   0.607   5.817
 3243SOL    HW110385   3.605   0.594   5.718
 3243SOL    HW210386   3.587   0.526   5.866
 3244SOL     OW10387   2.630   1.144   6.609
 3244SOL    HW110388   2.552   1.161   6.669
 3244SOL    HW210389   2.664   1.231   6.573
 3245SOL     OW10390   2.712   0.798   7.409
 3245SOL    HW110391   2.708   0.874   7.474
 3245SOL    HW210392   2.734   0.834   7.318
 3246SOL     OW10393   2.547   1.012   6.251
 3246SOL    HW110394   2.616   0.996   6.321
 3246SOL    HW210395   2.474   1.069   6.289
 3247SOL     OW10396   2.548   1.161   7.389
 3247SOL    HW110397   2.608   1.240   7.403
 3247SOL    HW210398   2.462   1.192   7.348
 3248SOL     OW10399   2.197   1.435   6.647
 3248SOL    HW110400   2.119   1.404   6.594
 3248SOL    HW210401   2.255   1.493   6.590
 3249SOL     OW10402   3.322   1.505   6.925
 3249SOL    HW110403   3.346   1.599   6.951
 3249SOL    HW210404   3.306   1.451   7.007
 3250SOL     OW10405   2.300   0.392   7.085
 3250SOL    HW110406   2.382   0.336   7.094
 3250SOL    HW210407   2.219   0.334   7.089
 3251SOL     OW10408   3.465   0.447   6.323
 3251SOL    HW110409   3.391   0.493   6.273
 3251SOL    HW210410   3.516   0.515   6.376
 3252SOL     OW10411   2.093   1.713   6.069
 3252SOL    HW110412   2.127   1.790   6.123
 3252SOL    HW210413   2.137   1.713   5.979
 3253SOL     OW10414   2.989   1.341   7.276
 3253SOL    HW110415   3.036   1.341   7.364
 3253SOL    HW210416   2.941   1.254   7.265
 3254SOL     OW10417   2.092   1.434   6.124
 3254SOL    HW110418   2.066   1.530   6.124
 3254SOL    HW210419   2.021   1.380   6.169
 3255SOL     OW10420   2.102   1.091   6.472
 3255SOL    HW110421   2.116   1.007   6.524
 3255SOL    HW210422   2.047   1.155   6.527
 3256SOL     OW10423   2.482   1.786   7.025
 3256SOL    HW110424   2.390   1.769   7.060
 3256SOL    HW210425   2.510   1.878   7.051
 3257SOL     OW10426   2.468   0.964   5.709
 3257SOL    HW110427   2.475   1.048   5.655
 3257SOL    HW210428   2.514   0.977   5.797
 3258SOL     OW10429   3.456   0.114   7.066
 3258SOL    HW110430   3.438   0.181   6.994
 3258SOL    HW210431   3.453   0.160   7.155
 3259SOL     OW10432   1.984   0.643   6.149
 3259SOL    HW110433   1.939   0.555   6.166
 3259SOL    HW210434   1.983   0.697   6.233
 3260SOL     OW10435   3.704   1.767   5.945
 3260SOL    HW110436   3.758   1.738   6.025
 3260SOL    HW210437   3.734   1.857   5.916
 3261SOL     OW10438   1.889   1.596   5.703
 3261SOL    HW110439   1.870   1.500   5.724
 3261SOL    HW210440   1.856   1.654   5.778
 3262SOL     OW10441   3.551   0.922   6.198
 3262SOL    HW110442   3.646   0.893   6.206
 3262SOL    HW210443   3.543   0.987   6.123
 3263SOL     OW10444   3.503   1.108   6.018
 3263SOL    HW110445   3.589   1.110   5.966
 3263SOL    HW210446   3.517   1.155   6.106
 3264SOL     OW10447   1.975   0.737   7.183
 3264SOL    HW110448   2.063   0.724   7.228
 3264SOL    HW210449   1.962   0.834   7.161
 3265SOL     OW10450   2.475   1.365   6.312
 3265SOL    HW110451   2.426   1.278   6.321
 3265SOL    HW210452   2.452   1.408   6.225
 3266SOL     OW10453   3.155   1.228   7.009
 3266SOL    HW110454   3.192   1.155   6.951
 3266SOL    HW210455   3.207   1.233   7.094
 3267SOL     OW10456   2.671   0.004   6.088
 3267SOL    HW110457   2.711   0.095   6.079
 3267SOL    HW210458   2.571   0.012   6.094
 3268SOL     OW10459   2.059   0.976   6.850
 3268SOL    HW110460   2.148   0.931   6.836
 3268SOL    HW210461   1.986   0.911   6.831
 3269SOL     OW10462   3.387   0.999   5.776
 3269SOL    HW110463   3.324   0.923   5.789
 3269SOL    HW210464   3.435   1.017   5.862
 3270SOL     OW10465   3.049   1.792   7.202
 3270SOL    HW110466   3.073   1.852   7.126
 3270SOL    HW210467   3.056   1.697   7.172
 3271SOL     OW10468   2.179   0.251   7.387
 3271SOL    HW110469   2.250   0.322   7.393
 3271SOL    HW210470   2.091   0.290   7.415
 3272SOL     OW10471   3.328   1.417   6.539
 3272SOL    HW110472   3.269   1.423   6.619
 3272SOL    HW210473   3.313   1.329   6.493
 3273SOL     OW10474   3.529   1.714   6.158
 3273SOL    HW110475   3.488   1.691   6.070
 3273SOL    HW210476   3.511   1.640   6.223
 3274SOL     OW10477   2.460   0.729   5.856
 3274SOL    HW110478   2.484   0.798   5.788
 3274SOL    HW210479   2.382   0.762   5.910
 3275SOL     OW10480   3.143   0.345   6.530
 3275SOL    HW110481   3.057   0.295   6.517
 3275SOL    HW210482   3.205   0.291   6.586
 3276SOL     OW10483   3.438   1.662   5.893
 3276SOL    HW110484   3.527   1.708   5.896
 3276SOL    HW210485   3.417   1.638   5.798
 3277SOL     OW10486   2.669   0.605   7.051
 3277SOL    HW110487   2.622   0.602   7.140
 3277SOL    HW210488   2.618   0.550   6.985
 3278SOL     OW10489   3.256   0.469   7.260
 3278SOL    HW110490   3.236   0.512   7.348
 3278SOL    HW210491   3.334   0.407   7.269
 3279SOL     OW10492   2.835   0.890   7.158
 3279SOL    HW110493   2.881   0.806   7.129
 3279SOL    HW210494   2.779   0.924   7.083
 3280SOL     OW10495   2.853   0.410   6.828
 3280SOL    HW110496   2.776   0.444   6.882
 3280SOL    HW210497   2.819   0.359   6.749
 3281SOL     OW10498   2.903   0.701   6.015
 3281SOL    HW110499   2.929   0.697   6.111
 3281SOL    HW210500   2.818   0.650   6.001
 3282SOL     OW10501   1.938   0.811   6.375
 3282SOL    HW110502   2.037   0.799   6.384
 3282SOL    HW210503   1.914   0.906   6.396
 3283SOL     OW10504   1.992   1.821   7.157
 3283SOL    HW110505   1.982   1.806   7.256
 3283SOL    HW210506   1.906   1.857   7.121
 3284SOL     OW10507   2.727   0.348   5.781
 3284SOL    HW110508   2.786   0.411   5.732
 3284SOL    HW210509   2.746   0.254   5.752
 3285SOL     OW10510   3.581   0.585   7.417
 3285SOL    HW110511   3.555   0.674   7.381
 3285SOL    HW210512   3.579   0.517   7.344
 3286SOL     OW10513   3.224   1.144   6.131
 3286SOL    HW110514   3.307   1.115   6.083
 3286SOL    HW210515   3.175   1.211   6.075
 3287SOL     OW10516   2.412   0.196   6.471
 3287SOL    HW110517   2.407   0.191   6.571
 3287SOL    HW210518   2.414   0.292   6.442
 3288SOL     OW10519   2.870   1.456   6.063
 3288SOL    HW110520   2.824   1.528   6.011
 3288SOL    HW210521   2.866   1.476   6.161
 3289SOL     OW10522   2.213   1.801   6.439
 3289SOL    HW110523   2.263   1.715   6.445
 3289SOL    HW210524   2.278   1.878   6.436
 3290SOL     OW10525   3.657   1.066   6.459
 3290SOL    HW110526   3.595   1.051   6.383
 3290SOL    HW210527   3.605   1.077   6.544
 3291SOL     OW10528   3.089   1.550   7.092
 3291SOL    HW110529   3.095   1.473   7.156
 3291SOL    HW210530   3.037   1.524   7.012
 3292SOL     OW10531   2.183   0.943   5.828
 3292SOL    HW110532   2.265   0.982   5.786
 3292SOL    HW210533   2.156   0.861   5.779
 3293SOL     OW10534   3.320   0.735   6.314
 3293SOL    HW110535   3.315   0.670   6.389
 3293SOL    HW210536   3.400   0.794   6.327
 3294SOL     OW10537   2.323   1.266   7.313
 3294SOL    HW110538   2.273   1.267   7.227
 3294SOL    HW210539   2.260   1.248   7.389
 3295SOL     OW10540   2.973   1.776   5.823
 3295SOL    HW110541   2.913   1.714   5.873
 3295SOL    HW210542   3.004   1.732   5.738
 3296SOL     OW10543   2.064   0.285   7.084
 3296SOL    HW110544   1.984   0.345   7.071
 3296SOL    HW210545   2.054   0.236   7.170
 3297SOL     OW10546   3.494   1.377   5.667
 3297SOL    HW110547   3.462   1.471   5.657
 3297SOL    HW210548   3.418   1.314   5.655
 3298SOL     OW10549   2.326   1.743   5.909
 3298SOL    HW110550   2.359   1.782   5.995
 3298SOL    HW210551   2.402   1.736   5.844
 3299SOL     OW10552   3.262   0.107   6.012
 3299SOL    HW110553   3.238   0.070   5.922
 3299SOL    HW210554   3.361   0.123   6.016
 3300SOL     OW10555   2.111   1.785   6.827
 3300SOL    HW110556   2.168   1.720   6.877
 3300SOL    HW210557   2.095   1.752   6.734
 3301SOL     OW10558   2.802   1.698   6.490
 3301SOL    HW110559   2.882   1.641   6.511
 3301SOL    HW210560   2.753   1.658   6.413
 3302SOL     OW10561   2.244   0.700   6.066
 3302SOL    HW110562   2.289   0.610   6.063
 3302SOL    HW210563   2.150   0.689   6.099
 3303SOL     OW10564   3.409   0.222   7.315
 3303SOL    HW110565   3.404   0.259   7.407
 3303SOL    HW210566   3.337   0.153   7.303
 3304SOL     OW10567   2.476   0.122   5.703
 3304SOL    HW110568   2.574   0.100   5.710
 3304SOL    HW210569   2.445   0.105   5.610
 3305SOL     OW10570   2.643   0.264   7.335
 3305SOL    HW110571   2.710   0.203   7.378
 3305SOL    HW210572   2.570   0.283   7.400
 3306SOL     OW10573   2.750   1.514   6.781
 3306SOL    HW110574   2.727   1.489   6.687
 3306SOL    HW210575   2.811   1.445   6.820
 3307SOL     OW10576   3.213   0.590   7.019
 3307SOL    HW110577   3.241   0.547   7.104
 3307SOL    HW210578   3.238   0.686   7.020
 3308SOL     OW10579   2.665   1.402   6.510
 3308SOL    HW110580   2.755   1.416   6.468
 3308SOL    HW210581   2.594   1.404   6.439
 3309SOL     OW10582   2.784   0.503   6.485
 3309SOL    HW110583   2.759   0.494   6.389
 3309SOL    HW210584   2.832   0.421   6.516
 3310SOL     OW10585   2.401   0.064   6.098
 3310SOL    HW110586   2.320   0.065   6.156
 3310SOL    HW210587   2.404   0.147   6.043
 3311SOL     OW10588   3.296   1.188   5.627
 3311SOL    HW110589   3.328   1.112   5.684
 3311SOL    HW210590   3.204   1.215   5.657
 3312SOL     OW10591   2.159   0.035   5.757
 3312SOL    HW110592   2.208   0.119   5.736
 3312SOL    HW210593   2.221  -0.030   5.802
 3313SOL     OW10594   2.797   0.236   6.066
 3313SOL    HW110595   2.749   0.277   5.988
 3313SOL    HW210596   2.896   0.234   6.047
 3314SOL     OW10597   2.938   0.683   7.050
 3314SOL    HW110598   2.858   0.622   7.053
 3314SOL    HW210599   3.019   0.630   7.026
 3315SOL     OW10600   3.089   1.570   6.379
 3315SOL    HW110601   3.110   1.644   6.314
 3315SOL    HW210602   3.157   1.570   6.452
 3316SOL     OW10603   2.321   1.152   6.327
 3316SOL    HW110604   2.250   1.125   6.392
 3316SOL    HW210605   2.295   1.124   6.234
 3317SOL     OW10606   3.133   1.797   6.177
 3317SOL    HW110607   3.177   1.861   6.113
 3317SOL    HW210608   3.083   1.849   6.247
 3318SOL     OW10609   2.894   0.549   5.602
 3318SOL    HW110610   2.853   0.631   5.563
 3318SOL    HW210611   2.958   0.575   5.675
 3319SOL     OW10612   1.940   0.556   6.972
 3319SOL    HW110613   2.032   0.555   6.931
 3319SOL    HW210614   1.934   0.630   7.039
 3320SOL     OW10615   2.423   0.222   6.733
 3320SOL    HW110616   2.461   0.138   6.770
 3320SOL    HW210617   2.335   0.241   6.777
 3321SOL     OW10618   2.728   0.454   6.228
 3321SOL    HW110619   2.696   0.526   6.166
 3321SOL    HW210620   2.752   0.373   6.175
 3322SOL     OW10621   2.879   0.039   6.339
 3322SOL    HW110622   2.807   0.044   6.270
 3322SOL    HW210623   2.855  -0.030   6.408
 3323SOL     OW10624   3.291   1.173   6.453
 3323SOL    HW110625   3.236   1.089   6.446
 3323SOL    HW210626   3.317   1.202   6.361
 3324SOL     OW10627   3.328   0.590   6.578
 3324SOL    HW110628   3.298   0.495   6.585
 3324SOL    HW210629   3.401   0.606   6.644
 3325SOL     OW10630   3.719   0.833   5.963
 3325SOL    HW110631   3.761   0.769   6.027
 3325SOL    HW210632   3.681   0.782   5.885
 3326SOL     OW10633   2.350   1.385   5.760
 3326SOL    HW110634   2.263   1.370   5.807
 3326SOL    HW210635   2.333   1.411   5.665
 3327SOL     OW10636   3.526   1.280   6.243
 3327SOL    HW110637   3.625   1.288   6.257
 3327SOL    HW210638   3.481   1.364   6.274
 3328SOL     OW10639   3.252   0.575   5.664
 3328SOL    HW110640   3.198   0.554   5.745
 3328SOL    HW210641   3.343   0.534   5.673
 3329SOL     OW10642   2.389   0.256   5.914
 3329SOL    HW110643   2.416   0.197   5.839
 3329SOL    HW210644   2.389   0.351   5.883
 3330SOL     OW10645   3.616   1.223   7.174
 3330SOL    HW110646   3.707   1.184   7.161
 3330SOL    HW210647   3.624   1.319   7.198
 3331SOL     OW10648   2.926   1.347   6.926
 3331SOL    HW110649   2.846   1.324   6.981
 3331SOL    HW210650   3.009   1.321   6.975
 3332SOL     OW10651   3.454   1.629   7.211
 3332SOL    HW110652   3.481   1.663   7.121
 3332SOL    HW210653   3.533   1.591   7.257
 3333SOL     OW10654   2.973   1.195   6.686
 3333SOL    HW110655   2.933   1.239   6.767
 3333SOL    HW210656   2.932   1.232   6.603
 3334SOL     OW10657   3.500   1.099   6.665
 3334SOL    HW110658   3.505   1.180   6.724
 3334SOL    HW210659   3.414   1.101   6.614
 3335SOL     OW10660   2.777   0.089   6.988
 3335SOL    HW110661   2.802   0.069   6.893
 3335SOL    HW210662   2.849   0.145   7.030
 3336SOL     OW10663   2.842   1.116   7.305
 3336SOL    HW110664   2.743   1.122   7.315
 3336SOL    HW210665   2.865   1.036   7.249
 3337SOL     OW10666   2.567   1.050   5.954
 3337SOL    HW110667   2.553   1.057   6.053
 3337SOL    HW210668   2.651   0.999   5.936
 3338SOL     OW10669   2.272   0.813   6.837
 3338SOL    HW110670   2.358   0.825   6.887
 3338SOL    HW210671   2.230   0.726   6.864
 3339SOL     OW10672   3.136   0.386   6.848
 3339SOL    HW110673   3.157   0.460   6.912
 3339SOL    HW210674   3.047   0.403   6.805
 3340SOL     OW10675   1.926   1.564   6.917
 3340SOL    HW110676   1.880   1.646   6.883
 3340SOL    HW210677   2.024   1.583   6.926
 3341SOL     OW10678   2.229   1.100   6.087
 3341SOL    HW110679   2.222   1.183   6.031
 3341SOL    HW210680   2.233   1.020   6.027
 3342SOL     OW10681   2.428   0.537   6.451
 3342SOL    HW110682   2.440   0.603   6.377
 3342SOL    HW210683   2.474   0.571   6.534
 3343SOL     OW10684   3.114   1.348   5.974
 3343SOL    HW110685   3.164   1.425   6.014
 3343SOL    HW210686   3.019   1.350   6.006
 3344SOL     OW10687   3.134   1.445   6.728
 3344SOL    HW110688   3.181   1.458   6.815
 3344SOL    HW210689   3.068   1.371   6.737
 3345SOL     OW10690   3.444   0.639   6.058
 3345SOL    HW110691   3.413   0.700   6.131
 3345SOL    HW210692   3.494   0.691   5.989
 3346SOL     OW10693   2.216   1.510   6.915
 3346SOL    HW110694   2.195   1.466   6.828
 3346SOL    HW210695   2.313   1.536   6.918
 3347SOL     OW10696   2.264   0.751   7.184
 3347SOL    HW110697   2.332   0.806   7.137
 3347SOL    HW210698   2.304   0.663   7.211
 3348SOL     OW10699   3.449   0.779   7.256
 3348SOL    HW110700   3.357   0.817   7.251
 3348SOL    HW210701   3.509   0.826   7.191
 3349SOL     OW10702   2.875   0.105   7.356
 3349SOL    HW110703   2.881   0.190   7.304
 3349SOL    HW210704   2.907   0.029   7.299
 3350SOL     OW10705   2.366   0.050   7.326
 3350SOL    HW110706   2.324  -0.007   7.256
 3350SOL    HW210707   2.300   0.119   7.358
 3351SOL     OW10708   2.435   0.870   6.615
 3351SOL    HW110709   2.479   0.959   6.606
 3351SOL    HW210710   2.372   0.870   6.692
 3352SOL     OW10711   3.222   0.862   6.631
 3352SOL    HW110712   3.147   0.862   6.565
 3352SOL    HW210713   3.259   0.770   6.640
 3353SOL     OW10714   3.071   0.525   5.861
 3353SOL    HW110715   3.084   0.441   5.915
 3353SOL    HW210716   3.042   0.599   5.921
 3354SOL     OW10717   2.169   0.213   6.817
 3354SOL    HW110718   2.146   0.250   6.907
 3354SOL    HW210719   2.139   0.118   6.811
 3355SOL     OW10720   1.899   1.310   6.868
 3355SOL    HW110721   1.952   1.261   6.936
 3355SOL    HW210722   1.921   1.408   6.873
 3356SOL     OW10723   2.594   0.634   6.650
 3356SOL    HW110724   2.653   0.608   6.574
 3356SOL    HW210725   2.566   0.730   6.639
 3357SOL     OW10726   3.590   0.935   7.440
 3357SOL    HW110727   3.544   0.928   7.351
 3357SOL    HW210728   3.528   0.979   7.506
 3358SOL     OW10729   2.169   0.063   6.204
 3358SOL    HW110730   2.158   0.157   6.237
 3358SOL    HW210731   2.164   0.000   6.281
 3359SOL     OW10732   3.484   0.367   5.960
 3359SOL    HW110733   3.486   0.291   6.024
 3359SOL    HW210734   3.436   0.444   6.000
 3360SOL     OW10735   2.885   0.766   6.552
 3360SOL    HW110736   2.900   0.787   6.648
 3360SOL    HW210737   2.855   0.671   6.543
 3361SOL     OW10738   2.842   1.573   7.286
 3361SOL    HW110739   2.822   1.617   7.198
 3361SOL    HW210740   2.881   1.482   7.270
 3362SOL     OW10741   3.721   1.518   7.191
 3362SOL    HW110742   3.735   1.545   7.096
 3362SOL    HW210743   3.804   1.540   7.244
 3363SOL     OW10744   2.212   0.898   7.390
 3363SOL    HW110745   2.288   0.942   7.438
 3363SOL    HW210746   2.247   0.851   7.308
 3364SOL     OW10747   3.402   0.274   5.711
 3364SOL    HW110748   3.341   0.199   5.734
 3364SOL    HW210749   3.424   0.326   5.794
 3365SOL     OW10750   3.165   0.838   5.628
 3365SOL    HW110751   3.199   0.745   5.643
 3365SOL    HW210752   3.183   0.865   5.533
 3366SOL     OW10753   2.930   1.333   6.435
 3366SOL    HW110754   2.937   1.249   6.380
 3366SOL    HW210755   2.992   1.402   6.399
 3367SOL     OW10756   2.181   0.810   6.535
 3367SOL    HW110757   2.274   0.846   6.540
 3367SOL    HW210758   2.175   0.725   6.587
 3368SOL     OW10759   2.201   0.509   6.592
 3368SOL    HW110760   2.149   0.426   6.575
 3368SOL    HW210761   2.278   0.514   6.528
 3369SOL     OW10762   3.000   0.380   7.264
 3369SOL    HW110763   2.955   0.443   7.328
 3369SOL    HW210764   3.093   0.411   7.247
 3370SOL     OW10765   3.022   0.207   7.063
 3370SOL    HW110766   3.022   0.271   7.140
 3370SOL    HW210767   3.050   0.255   6.980
 3371SOL     OW10768   1.870   1.326   5.786
 3371SOL    HW110769   1.777   1.347   5.755
 3371SOL    HW210770   1.880   1.227   5.799
 3372SOL     OW10771   1.950   1.801   6.513
 3372SOL    HW110772   1.908   1.715   6.486
 3372SOL    HW210773   2.044   1.804   6.479
 3373SOL     OW10774   2.366   1.568   6.496
 3373SOL    HW110775   2.432   1.642   6.505
 3373SOL    HW210776   2.410   1.489   6.454
 3374SOL     OW10777   2.864   0.796   6.824
 3374SOL    HW110778   2.905   0.764   6.910
 3374SOL    HW210779   2.768   0.769   6.821
 3375SOL     OW10780   1.902   0.544   6.700
 3375SOL    HW110781   1.987   0.511   6.659
 3375SOL    HW210782   1.915   0.559   6.798
 3376SOL     OW10783   2.051   0.520   7.308
 3376SOL    HW110784   2.110   0.480   7.238
 3376SOL    HW210785   1.993   0.591   7.267
 3377SOL     OW10786   3.231   0.950   7.246
 3377SOL    HW110787   3.270   1.039   7.266
 3377SOL    HW210788   3.241   0.930   7.149
 3378SOL     OW10789   2.677   0.572   5.911
 3378SOL    HW110790   2.684   0.483   5.865
 3378SOL    HW210791   2.583   0.606   5.903
 3379SOL     OW10792   3.519   0.604   6.792
 3379SOL    HW110793   3.481   0.535   6.854
 3379SOL    HW210794   3.601   0.568   6.748
 3380SOL     OW10795   2.114   1.564   7.330
 3380SOL    HW110796   2.084   1.621   7.406
 3380SOL    HW210797   2.107   1.467   7.356
 3381SOL     OW10798   2.533   0.464   6.855
 3381SOL    HW110799   2.499   0.375   6.825
 3381SOL    HW210800   2.559   0.518   6.775
 3382SOL     OW10801   2.792   1.678   7.051
 3382SOL    HW110802   2.768   1.660   6.956
 3382SOL    HW210803   2.822   1.772   7.061
 3383SOL     OW10804   2.335   0.500   5.777
 3383SOL    HW110805   2.396   0.580   5.781
 3383SOL    HW210806   2.240   0.531   5.784
 3384SOL     OW10807   2.021   1.137   7.052
 3384SOL    HW110808   2.043   1.076   7.128
 3384SOL    HW210809   2.031   1.088   6.966
 3385SOL     OW10810   3.209   1.059   6.820
 3385SOL    HW110811   3.233   0.996   6.746
 3385SOL    HW210812   3.119   1.099   6.802
 3386SOL     OW10813   3.164   0.855   5.895
 3386SOL    HW110814   3.078   0.824   5.937
 3386SOL    HW210815   3.160   0.841   5.796
 3387SOL     OW10816   3.621   1.747   6.740
 3387SOL    HW110817   3.682   1.777   6.667
 3387SOL    HW210818   3.583   1.658   6.718
 3388SOL     OW10819   3.114   1.731   6.714
 3388SOL    HW110820   3.198   1.736   6.660
 3388SOL    HW210821   3.091   1.635   6.732
 3389SOL     OW10822   1.945   1.258   6.608
 3389SOL    HW110823   1.940   1.257   6.708
 3389SOL    HW210824   1.862   1.217   6.570
 3390SOL     OW10825   2.550   1.662   7.302
 3390SOL    HW110826   2.494   1.743   7.311
 3390SOL    HW210827   2.602   1.666   7.216
 3391SOL     OW10828   3.588   0.135   6.109
 3391SOL    HW110829   3.661   0.118   6.042
 3391SOL    HW210830   3.557   0.048   6.147
 3392SOL     OW10831   3.250   1.573   6.063
 3392SOL    HW110832   3.317   1.585   5.989
 3392SOL    HW210833   3.210   1.662   6.086
 3393SOL     OW10834   1.992   1.794   7.437
 3393SOL    HW110835   1.951   1.720   7.490
 3393SOL    HW210836   2.056   1.845   7.495
 3394SOL     OW10837   3.142   0.927   6.258
 3394SOL    HW110838   3.202   0.846   6.260
 3394SOL    HW210839   3.182   0.996   6.198
 3395SOL     OW10840   2.692   1.273   7.008
 3395SOL    HW110841   2.687   1.306   7.103
 3395SOL    HW210842   2.606   1.292   6.962
 3396SOL     OW10843   2.534   1.616   5.740
 3396SOL    HW110844   2.543   1.626   5.641
 3396SOL    HW210845   2.494   1.527   5.761
 3397SOL     OW10846   3.512   1.720   6.980
 3397SOL    HW110847   3.565   1.730   6.896
 3397SOL    HW210848   3.485   1.810   7.014
 3398SOL     OW10849   3.703   0.175   6.549
 3398SOL    HW110850   3.742   0.090   6.513
 3398SOL    HW210851   3.605   0.177   6.530
 3399SOL     OW10852   2.125   0.326   6.306
 3399SOL    HW110853   2.046   0.377   6.272
 3399SOL    HW210854   2.116   0.311   6.404
 3400SOL     OW10855   3.056   1.612   5.617
 3400SOL    HW110856   3.062   1.519   5.654
 3400SOL    HW210857   2.997   1.612   5.537
 3401SOL     OW10858   2.684   1.002   6.958
 3401SOL    HW110859   2.724   1.001   6.866
 3401SOL    HW210860   2.694   1.094   6.998
 3402SOL     OW10861   2.778   0.910   5.877
 3402SOL    HW110862   2.841   0.948   5.809
 3402SOL    HW210863   2.818   0.827   5.916
 3403SOL     OW10864   3.366   1.607   5.630
 3403SOL    HW110865   3.274   1.644   5.637
 3403SOL    HW210866   3.404   1.627   5.540
 3404SOL     OW10867   2.234   1.288   7.076
 3404SOL    HW110868   2.221   1.381   7.042
 3404SOL    HW210869   2.150   1.236   7.063
 3405SOL     OW10870   3.476   1.292   6.875
 3405SOL    HW110871   3.536   1.295   6.955
 3405SOL    HW210872   3.401   1.356   6.888
 3406SOL     OW10873   2.901   1.098   6.282
 3406SOL    HW110874   2.831   1.051   6.336
 3406SOL    HW210875   2.960   1.030   6.239
 3407SOL     OW10876   2.876   0.236   6.557
 3407SOL    HW110877   2.868   0.200   6.464
 3407SOL    HW210878   2.874   0.160   6.622
 3408SOL     OW10879   2.452   1.487   6.077
 3408SOL    HW110880   2.494   1.429   6.007
 3408SOL    HW210881   2.408   1.566   6.033
 3409SOL     OW10882   3.571   0.385   6.967
 3409SOL    HW110883   3.644   0.454   6.971
 3409SOL    HW210884   3.599   0.310   6.908
 3410SOL     OW10885   2.117   1.348   5.876
 3410SOL    HW110886   2.021   1.349   5.849
 3410SOL    HW210887   2.129   1.401   5.960
 3411SOL     OW10888   1.967   1.013   7.312
 3411SOL    HW110889   1.890   0.980   7.366
 3411SOL    HW210890   2.052   0.983   7.354
 3412SOL     OW10891   2.534   0.203   7.075
 3412SOL    HW110892   2.624   0.187   7.035
 3412SOL    HW210893   2.542   0.208   7.174
 3413SOL     OW10894   1.937   0.345   5.619
 3413SOL    HW110895   1.845   0.317   5.590
 3413SOL    HW210896   1.968   0.422   5.563
 3414SOL     OW10897   3.302   0.856   6.984
 3414SOL    HW110898   3.245   0.908   6.921
 3414SOL    HW210899   3.398   0.868   6.960
 3415SOL     OW10900   1.934   0.166   5.904
 3415SOL    HW110901   1.917   0.249   5.850
 3415SOL    HW210902   2.024   0.129   5.882
 3416SOL     OW10903   3.045   1.335   5.705
 3416SOL    HW110904   2.946   1.324   5.707
 3416SOL    HW210905   3.079   1.350   5.798
 3417SOL     OW10906   2.475   0.842   7.017
 3417SOL    HW110907   2.531   0.923   7.000
 3417SOL    HW210908   2.534   0.762   7.020
 3418SOL     OW10909   3.355   1.767   6.545
 3418SOL    HW110910   3.388   1.831   6.476
 3418SOL    HW210911   3.421   1.761   6.620
 3419SOL     OW10912   2.578   0.565   7.294
 3419SOL    HW110913   2.597   0.630   7.368
 3419SOL    HW210914   2.638   0.485   7.303
 3420SOL     OW10915   3.312   1.220   7.219
 3420SOL    HW110916   3.303   1.210   7.318
 3420SOL    HW210917   3.408   1.213   7.193
 3421SOL     OW10918   2.252   1.741   7.146
 3421SOL    HW110919   2.161   1.782   7.144
 3421SOL    HW210920   2.245   1.647   7.178
 3422SOL     OW10921   3.536   0.883   6.840
 3422SOL    HW110922   3.509   0.794   6.803
 3422SOL    HW210923   3.537   0.951   6.767
 3423SOL     OW10924   3.087   0.325   6.035
 3423SOL    HW110925   3.152   0.251   6.024
 3423SOL    HW210926   3.107   0.375   6.119
 3424SOL     OW10927   2.456   0.745   6.238
 3424SOL    HW110928   2.506   0.830   6.219
 3424SOL    HW210929   2.368   0.747   6.190
 3425SOL     OW10930   3.639   0.342   7.228
 3425SOL    HW110931   3.622   0.373   7.134
 3425SOL    HW210932   3.555   0.305   7.266
 3426SOL     OW10933   3.592   0.934   7.103
 3426SOL    HW110934   3.630   1.025   7.118
 3426SOL    HW210935   3.584   0.917   7.004
 3427SOL     OW10936   2.721   1.374   5.602
 3427SOL    HW110937   2.675   1.389   5.690
 3427SOL    HW210938   2.765   1.459   5.572
 3428SOL     OW10939   2.523   1.790   6.539
 3428SOL    HW110940   2.477   1.878   6.526
 3428SOL    HW210941   2.622   1.802   6.532
 3429SOL     OW10942   2.721   0.956   6.447
 3429SOL    HW110943   2.775   0.887   6.495
 3429SOL    HW210944   2.689   1.025   6.513
 3430SOL     OW10945   2.945   0.984   5.673
 3430SOL    HW110946   2.922   1.037   5.591
 3430SOL    HW210947   3.026   0.928   5.654
 3431SOL     OW10948   3.723   1.569   6.437
 3431SOL    HW110949   3.652   1.557   6.367
 3431SOL    HW210950   3.724   1.490   6.497
 3432SOL     OW10951   2.083   1.314   7.430
 3432SOL    HW110952   2.018   1.241   7.409
 3432SOL    HW210953   2.087   1.328   7.528
 3433SOL     OW10954   1.941   1.240   6.239
 3433SOL    HW110955   1.940   1.193   6.327
 3433SOL    HW210956   2.023   1.212   6.188
 3434SOL     OW10957   2.534   1.391   7.210
 3434SOL    HW110958   2.456   1.341   7.248
 3434SOL    HW210959   2.531   1.486   7.241
 3435SOL     OW10960   3.686   0.192   6.813
 3435SOL    HW110961   3.682   0.102   6.857
 3435SOL    HW210962   3.689   0.181   6.714
 3436SOL     OW10963   2.290   0.424   6.106
 3436SOL    HW110964   2.320   0.352   6.044
 3436SOL    HW210965   2.251   0.384   6.189
 3437SOL     OW10966   3.567   1.487   6.690
 3437SOL    HW110967   3.474   1.462   6.663
 3437SOL    HW210968   3.593   1.437   6.772
 3438SOL     OW10969   2.179   0.547   6.866
 3438SOL    HW110970   2.217   0.488   6.938
 3438SOL    HW210971   2.219   0.521   6.778
 3439SOL     OW10972   2.674   1.586   6.273
 3439SOL    HW110973   2.706   1.596   6.179
 3439SOL    HW210974   2.595   1.524   6.275
 3440SOL     OW10975   3.286   0.214   6.698
 3440SOL    HW110976   3.338   0.149   6.753
 3440SOL    HW210977   3.237   0.277   6.759
 3441SOL     OW10978   2.863   0.034   6.740
 3441SOL    HW110979   2.800  -0.038   6.709
 3441SOL    HW210980   2.956  -0.002   6.740
 3442SOL     OW10981   2.632   1.330   5.887
 3442SOL    HW110982   2.586   1.243   5.904
 3442SOL    HW210983   2.723   1.327   5.928
 3443SOL     OW10984   2.480   1.567   6.870
 3443SOL    HW110985   2.475   1.649   6.927
 3443SOL    HW210986   2.569   1.564   6.825
 3444SOL     OW10987   3.214   0.052   5.754
 3444SOL    HW110988   3.249   0.011   5.670
 3444SOL    HW210989   3.124   0.014   5.774
 3445SOL     OW10990   3.162   0.453   6.277
 3445SOL    HW110991   3.103   0.533   6.281
 3445SOL    HW210992   3.177   0.418   6.370
 3446SOL     OW10993   3.455   0.221   6.468
 3446SOL    HW110994   3.371   0.220   6.522
 3446SOL    HW210995   3.457   0.304   6.412
 3447SOL     OW10996   1.901   1.077   5.886
 3447SOL    HW110997   2.000   1.066   5.877
 3447SOL    HW210998   1.861   0.991   5.918
 3448SOL     OW10999   2.737   1.646   5.923
 3448SOL    HW111000   2.660   1.611   5.869
 3448SOL    HW211001   2.705   1.717   5.985
 3449SOL     OW11002   2.092   0.628   7.561
 3449SOL    HW111003   1.999   0.626   7.598
 3449SOL    HW211004   2.093   0.589   7.469
 3450SOL     OW11005   3.617   0.607   7.679
 3450SOL    HW111006   3.605   0.594   7.580
 3450SOL    HW211007   3.587   0.526   7.728
 3451SOL     OW11008   2.093   1.713   7.931
 3451SOL    HW111009   2.127   1.790   7.985
 3451SOL    HW211010   2.137   1.713   7.841
 3452SOL     OW11011   2.092   1.434   7.986
 3452SOL    HW111012   2.066   1.530   7.986
 3452SOL    HW211013   2.021   1.380   8.031
 3453SOL     OW11014   2.468   0.964   7.571
 3453SOL    HW111015   2.475   1.048   7.517
 3453SOL    HW211016   2.514   0.977   7.659
 3454SOL     OW11017   3.704   1.767   7.807
 3454SOL    HW111018   3.758   1.738   7.887
 3454SOL    HW211019   3.734   1.857   7.778
 3455SOL     OW11020   1.889   1.596   7.565
 3455SOL    HW111021   1.870   1.500   7.586
 3455SOL    HW211022   1.856   1.654   7.640
 3456SOL     OW11023   3.551   0.922   8.060
 3456SOL    HW111024   3.646   0.893   8.068
 3456SOL    HW211025   3.543   0.987   7.985
 3457SOL     OW11026   3.503   1.108   7.880
 3457SOL    HW111027   3.589   1.110   7.828
 3457SOL    HW211028   3.517   1.155   7.968
 3458SOL     OW11029   2.671   0.004   7.950
 3458SOL    HW111030   2.711   0.095   7.941
 3458SOL    HW211031   2.571   0.012   7.956
 3459SOL     OW11032   3.387   0.999   7.638
 3459SOL    HW111033   3.324   0.923   7.651
 3459SOL    HW211034   3.435   1.017   7.724
 3460SOL     OW11035   2.460   0.729   7.718
 3460SOL    HW111036   2.484   0.798   7.650
 3460SOL    HW211037   2.382   0.762   7.772
 3461SOL     OW11038   3.438   1.662   7.755
 3461SOL    HW111039   3.527   1.708   7.758
 3461SOL    HW211040   3.417   1.638   7.660
 3462SOL     OW11041   1.938   0.811   8.237
 3462SOL    HW111042   2.037   0.799   8.246
 3462SOL    HW211043   1.914   0.906   8.258
 3463SOL     OW11044   2.727   0.348   7.643
 3463SOL    HW111045   2.786   0.411   7.594
 3463SOL    HW211046   2.746   0.254   7.614
 3464SOL     OW11047   2.183   0.943   7.690
 3464SOL    HW111048   2.265   0.982   7.648
 3464SOL    HW211049   2.156   0.861   7.641
 3465SOL     OW11050   2.973   1.776   7.685
 3465SOL    HW111051   2.913   1.714   7.735
 3465SOL    HW211052   3.004   1.732   7.600
 3466SOL     OW11053   3.494   1.377   7.529
 3466SOL    HW111054   3.462   1.471   7.519
 3466SOL    HW211055   3.418   1.314   7.517
 3467SOL     OW11056   2.326   1.743   7.771
 3467SOL    HW111057   2.359   1.782   7.857
 3467SOL    HW211058   2.402   1.736   7.706
 3468SOL     OW11059   3.262   0.107   7.874
 3468SOL    HW111060   3.238   0.070   7.784
 3468SOL    HW211061   3.361   0.123   7.878
 3469SOL     OW11062   2.244   0.700   7.928
 3469SOL    HW111063   2.289   0.610   7.925
 3469SOL    HW211064   2.150   0.689   7.961
 3470SOL     OW11065   2.476   0.122   7.565
 3470SOL    HW111066   2.574   0.100   7.572
 3470SOL    HW211067   2.445   0.105   7.472
 3471SOL     OW11068   2.401   0.064   7.960
 3471SOL    HW111069   2.320   0.065   8.018
 3471SOL    HW211070   2.404   0.147   7.905
 3472SOL     OW11071   3.296   1.188   7.489
 3472SOL    HW111072   3.328   1.112   7.546
 3472SOL    HW211073   3.204   1.215   7.519
 3473SOL     OW11074   2.159   0.035   7.619
 3473SOL    HW111075   2.208   0.119   7.598
 3473SOL    HW211076   2.221  -0.030   7.664
 3474SOL     OW11077   2.797   0.236   7.928
 3474SOL    HW111078   2.749   0.277   7.850
 3474SOL    HW211079   2.896   0.234   7.909
 3475SOL     OW11080   2.321   1.152   8.189
 3475SOL    HW111081   2.250   1.125   8.254
 3475SOL    HW211082   2.295   1.124   8.096
 3476SOL     OW11083   3.133   1.797   8.039
 3476SOL    HW111084   3.177   1.861   7.975
 3476SOL    HW211085   3.083   1.849   8.109
 3477SOL     OW11086   2.894   0.549   7.464
 3477SOL    HW111087   2.853   0.631   7.425
 3477SOL    HW211088   2.958   0.575   7.537
 3478SOL     OW11089   3.719   0.833   7.825
 3478SOL    HW111090   3.761   0.769   7.889
 3478SOL    HW211091   3.681   0.782   7.747
 3479SOL     OW11092   2.350   1.385   7.622
 3479SOL    HW111093   2.263   1.370   7.669
 3479SOL    HW211094   2.333   1.411   7.527
 3480SOL     OW11095   3.252   0.575   7.526
 3480SOL    HW111096   3.198   0.554   7.607
 3480SOL    HW211097   3.343   0.534   7.535
 3481SOL     OW11098   2.389   0.256   7.776
 3481SOL    HW111099   2.416   0.197   7.701
 3481SOL    HW211100   2.389   0.351   7.745
 3482SOL     OW11101   2.567   1.050   7.816
 3482SOL    HW111102   2.553   1.057   7.915
 3482SOL    HW211103   2.651   0.999   7.798
 3483SOL     OW11104   2.229   1.100   7.949
 3483SOL    HW111105   2.222   1.183   7.893
 3483SOL    HW211106   2.233   1.020   7.889
 3484SOL     OW11107   3.114   1.348   7.836
 3484SOL    HW111108   3.164   1.425   7.876
 3484SOL    HW211109   3.019   1.350   7.868
 3485SOL     OW11110   3.444   0.639   7.920
 3485SOL    HW111111   3.413   0.700   7.993
 3485SOL    HW211112   3.494   0.691   7.851
 3486SOL     OW11113   3.071   0.525   7.723
 3486SOL    HW111114   3.084   0.441   7.777
 3486SOL    HW211115   3.042   0.599   7.783
 3487SOL     OW11116   3.484   0.367   7.822
 3487SOL    HW111117   3.486   0.291   7.886
 3487SOL    HW211118   3.436   0.444   7.862
 3488SOL     OW11119   3.402   0.274   7.573
 3488SOL    HW111120   3.341   0.199   7.596
 3488SOL    HW211121   3.424   0.326   7.656
 3489SOL     OW11122   3.165   0.838   7.490
 3489SOL    HW111123   3.199   0.745   7.505
 3489SOL    HW211124   3.183   0.865   7.395
 3490SOL     OW11125   1.870   1.326   7.648
 3490SOL    HW111126   1.777   1.347   7.617
 3490SOL    HW211127   1.880   1.227   7.661
 3491SOL     OW11128   2.677   0.572   7.773
 3491SOL    HW111129   2.684   0.483   7.727
 3491SOL    HW211130   2.583   0.606   7.765
 3492SOL     OW11131   2.335   0.500   7.639
 3492SOL    HW111132   2.396   0.580   7.643
 3492SOL    HW211133   2.240   0.531   7.646
 3493SOL     OW11134   3.164   0.855   7.757
 3493SOL    HW111135   3.078   0.824   7.799
 3493SOL    HW211136   3.160   0.841   7.658
 3494SOL     OW11137   3.588   0.135   7.971
 3494SOL    HW111138   3.661   0.118   7.904
 3494SOL    HW211139   3.557   0.048   8.009
 3495SOL     OW11140   3.250   1.573   7.925
 3495SOL    HW111141   3.317   1.585   7.851
 3495SOL    HW211142   3.210   1.662   7.948
 3496SOL     OW11143   2.534   1.616   7.602
 3496SOL    HW111144   2.543   1.626   7.503
 3496SOL    HW211145   2.494   1.527   7.623
 3497SOL     OW11146   3.056   1.612   7.479
 3497SOL    HW111147   3.062   1.519   7.516
 3497SOL    HW211148   2.997   1.612   7.399
 3498SOL     OW11149   2.778   0.910   7.739
 3498SOL    HW111150   2.841   0.948   7.671
 3498SOL    HW211151   2.818   0.827   7.778
 3499SOL     OW11152   3.366   1.607   7.492
 3499SOL    HW111153   3.274   1.644   7.499
 3499SOL    HW211154   3.404   1.627   7.402
 3500SOL     OW11155   2.452   1.487   7.939
 3500SOL    HW111156   2.494   1.429   7.869
 3500SOL    HW211157   2.408   1.566   7.895
 3501SOL     OW11158   2.117   1.348   7.738
 3501SOL    HW111159   2.021   1.349   7.711
 3501SOL    HW211160   2.129   1.401   7.822
 3502SOL     OW11161   1.937   0.345   7.481
 3502SOL    HW111162   1.845   0.317   7.452
 3502SOL    HW211163   1.968   0.422   7.425
 3503SOL     OW11164   1.934   0.166   7.766
 3503SOL    HW111165   1.917   0.249   7.712
 3503SOL    HW211166   2.024   0.129   7.744
 3504SOL     OW11167   3.045   1.335   7.567
 3504SOL    HW111168   2.946   1.324   7.569
 3504SOL    HW211169   3.079   1.350   7.660
 3505SOL     OW11170   3.087   0.325   7.897
 3505SOL    HW111171   3.152   0.251   7.886
 3505SOL    HW211172   3.107   0.375   7.981
 3506SOL     OW11173   2.456   0.745   8.100
 3506SOL    HW111174   2.506   0.830   8.081
 3506SOL    HW211175   2.368   0.747   8.052
 3507SOL     OW11176   2.721   1.374   7.464
 3507SOL    HW111177   2.675   1.389   7.552
 3507SOL    HW211178   2.765   1.459   7.434
 3508SOL     OW11179   2.945   0.984   7.535
 3508SOL    HW111180   2.922   1.037   7.453
 3508SOL    HW211181   3.026   0.928   7.516
 3509SOL     OW11182   2.290   0.424   7.968
 3509SOL    HW111183   2.320   0.352   7.906
 3509SOL    HW211184   2.251   0.384   8.051
 3510SOL     OW11185   2.632   1.330   7.749
 3510SOL    HW111186   2.586   1.243   7.766
 3510SOL    HW211187   2.723   1.327   7.790
 3511SOL     OW11188   3.214   0.052   7.616
 3511SOL    HW111189   3.249   0.011   7.532
 3511SOL    HW211190   3.124   0.014   7.636
 3512SOL     OW11191   1.901   1.077   7.748
 3512SOL    HW111192   2.000   1.066   7.739
 3512SOL    HW211193   1.861   0.991   7.780
 3513SOL     OW11194   2.737   1.646   7.785
 3513SOL    HW111195   2.660   1.611   7.731
 3513SOL    HW211196   2.705   1.717   7.847
 3514SOL     OW11197   2.092   2.490   0.113
 3514SOL    HW111198   1.999   2.488   0.150
 3514SOL    HW211199   2.093   2.451   0.021
 3515SOL     OW11200   2.087   2.137   0.996
 3515SOL    HW111201   2.122   2.120   1.088
 3515SOL    HW211202   1.999   2.092   0.984
 3516SOL     OW11203   1.881   2.230   0.647
 3516SOL    HW111204   1.799   2.273   0.686
 3516SOL    HW211205   1.853   2.157   0.584
 3517SOL     OW11206   2.431   3.137   1.165
 3517SOL    HW111207   2.338   3.130   1.128
 3517SOL    HW211208   2.442   3.226   1.209
 3518SOL     OW11209   3.417   3.373   0.703
 3518SOL    HW111210   3.360   3.357   0.784
 3518SOL    HW211211   3.358   3.383   0.623
 3519SOL     OW11212   2.997   2.565   0.717
 3519SOL    HW111213   3.054   2.643   0.692
 3519SOL    HW211214   2.937   2.591   0.793
 3520SOL     OW11215   3.617   2.469   0.231
 3520SOL    HW111216   3.605   2.456   0.132
 3520SOL    HW211217   3.587   2.388   0.280
 3521SOL     OW11218   2.548   3.023   1.803
 3521SOL    HW111219   2.608   3.102   1.817
 3521SOL    HW211220   2.462   3.054   1.762
 3522SOL     OW11221   2.197   3.297   1.061
 3522SOL    HW111222   2.119   3.266   1.008
 3522SOL    HW211223   2.255   3.355   1.004
 3523SOL     OW11224   3.322   3.367   1.339
 3523SOL    HW111225   3.346   3.461   1.365
 3523SOL    HW211226   3.306   3.313   1.421
 3524SOL     OW11227   2.300   2.254   1.499
 3524SOL    HW111228   2.382   2.198   1.508
 3524SOL    HW211229   2.219   2.196   1.503
 3525SOL     OW11230   3.465   2.309   0.737
 3525SOL    HW111231   3.391   2.355   0.687
 3525SOL    HW211232   3.516   2.377   0.790
 3526SOL     OW11233   2.093   3.575   0.483
 3526SOL    HW111234   2.127   3.652   0.537
 3526SOL    HW211235   2.137   3.575   0.393
 3527SOL     OW11236   2.989   3.203   1.690
 3527SOL    HW111237   3.036   3.203   1.778
 3527SOL    HW211238   2.941   3.116   1.679
 3528SOL     OW11239   2.092   3.296   0.538
 3528SOL    HW111240   2.066   3.392   0.538
 3528SOL    HW211241   2.021   3.242   0.583
 3529SOL     OW11242   2.102   2.953   0.886
 3529SOL    HW111243   2.116   2.869   0.938
 3529SOL    HW211244   2.047   3.017   0.941
 3530SOL     OW11245   2.482   3.648   1.439
 3530SOL    HW111246   2.390   3.631   1.474
 3530SOL    HW211247   2.510   3.740   1.465
 3531SOL     OW11248   3.456   1.976   1.480
 3531SOL    HW111249   3.438   2.043   1.408
 3531SOL    HW211250   3.453   2.022   1.569
 3532SOL     OW11251   1.984   2.505   0.563
 3532SOL    HW111252   1.939   2.417   0.580
 3532SOL    HW211253   1.983   2.559   0.647
 3533SOL     OW11254   3.704   3.629   0.359
 3533SOL    HW111255   3.758   3.600   0.439
 3533SOL    HW211256   3.734   3.719   0.330
 3534SOL     OW11257   1.889   3.458   0.117
 3534SOL    HW111258   1.870   3.362   0.138
 3534SOL    HW211259   1.856   3.516   0.192
 3535SOL     OW11260   3.551   2.784   0.612
 3535SOL    HW111261   3.646   2.755   0.620
 3535SOL    HW211262   3.543   2.849   0.537
 3536SOL     OW11263   3.503   2.970   0.432
 3536SOL    HW111264   3.589   2.972   0.380
 3536SOL    HW211265   3.517   3.017   0.520
 3537SOL     OW11266   1.975   2.599   1.597
 3537SOL    HW111267   2.063   2.586   1.642
 3537SOL    HW211268   1.962   2.696   1.575
 3538SOL     OW11269   2.475   3.227   0.726
 3538SOL    HW111270   2.426   3.140   0.735
 3538SOL    HW211271   2.452   3.270   0.639
 3539SOL     OW11272   3.155   3.090   1.423
 3539SOL    HW111273   3.192   3.017   1.365
 3539SOL    HW211274   3.207   3.095   1.508
 3540SOL     OW11275   2.671   1.866   0.502
 3540SOL    HW111276   2.711   1.957   0.493
 3540SOL    HW211277   2.571   1.874   0.508
 3541SOL     OW11278   2.059   2.838   1.264
 3541SOL    HW111279   2.148   2.793   1.250
 3541SOL    HW211280   1.986   2.773   1.245
 3542SOL     OW11281   3.387   2.861   0.190
 3542SOL    HW111282   3.324   2.785   0.203
 3542SOL    HW211283   3.435   2.879   0.276
 3543SOL     OW11284   3.049   3.654   1.616
 3543SOL    HW111285   3.073   3.714   1.540
 3543SOL    HW211286   3.056   3.559   1.586
 3544SOL     OW11287   2.179   2.113   1.801
 3544SOL    HW111288   2.250   2.184   1.807
 3544SOL    HW211289   2.091   2.152   1.829
 3545SOL     OW11290   3.328   3.279   0.953
 3545SOL    HW111291   3.269   3.285   1.033
 3545SOL    HW211292   3.313   3.191   0.907
 3546SOL     OW11293   3.529   3.576   0.572
 3546SOL    HW111294   3.488   3.553   0.484
 3546SOL    HW211295   3.511   3.502   0.637
 3547SOL     OW11296   3.143   2.207   0.944
 3547SOL    HW111297   3.057   2.157   0.931
 3547SOL    HW211298   3.205   2.153   1.000
 3548SOL     OW11299   3.438   3.524   0.307
 3548SOL    HW111300   3.527   3.570   0.310
 3548SOL    HW211301   3.417   3.500   0.212
 3549SOL     OW11302   3.256   2.331   1.674
 3549SOL    HW111303   3.236   2.374   1.762
 3549SOL    HW211304   3.334   2.269   1.683
 3550SOL     OW11305   2.853   2.272   1.242
 3550SOL    HW111306   2.776   2.306   1.296
 3550SOL    HW211307   2.819   2.221   1.163
 3551SOL     OW11308   1.938   2.673   0.789
 3551SOL    HW111309   2.037   2.661   0.798
 3551SOL    HW211310   1.914   2.768   0.810
 3552SOL     OW11311   1.992   3.683   1.571
 3552SOL    HW111312   1.982   3.668   1.670
 3552SOL    HW211313   1.906   3.719   1.535
 3553SOL     OW11314   2.727   2.210   0.195
 3553SOL    HW111315   2.786   2.273   0.146
 3553SOL    HW211316   2.746   2.116   0.166
 3554SOL     OW11317   3.581   2.447   1.831
 3554SOL    HW111318   3.555   2.536   1.795
 3554SOL    HW211319   3.579   2.379   1.758
 3555SOL     OW11320   3.224   3.006   0.545
 3555SOL    HW111321   3.307   2.977   0.497
 3555SOL    HW211322   3.175   3.073   0.489
 3556SOL     OW11323   2.412   2.058   0.885
 3556SOL    HW111324   2.407   2.053   0.985
 3556SOL    HW211325   2.414   2.154   0.856
 3557SOL     OW11326   2.870   3.318   0.477
 3557SOL    HW111327   2.824   3.390   0.425
 3557SOL    HW211328   2.866   3.338   0.575
 3558SOL     OW11329   2.213   3.663   0.853
 3558SOL    HW111330   2.263   3.577   0.859
 3558SOL    HW211331   2.278   3.740   0.850
 3559SOL     OW11332   3.657   2.928   0.873
 3559SOL    HW111333   3.595   2.913   0.797
 3559SOL    HW211334   3.605   2.939   0.958
 3560SOL     OW11335   3.089   3.412   1.506
 3560SOL    HW111336   3.095   3.335   1.570
 3560SOL    HW211337   3.037   3.386   1.426
 3561SOL     OW11338   2.183   2.805   0.242
 3561SOL    HW111339   2.265   2.844   0.200
 3561SOL    HW211340   2.156   2.723   0.193
 3562SOL     OW11341   3.320   2.597   0.728
 3562SOL    HW111342   3.315   2.532   0.803
 3562SOL    HW211343   3.400   2.656   0.741
 3563SOL     OW11344   2.323   3.128   1.727
 3563SOL    HW111345   2.273   3.129   1.641
 3563SOL    HW211346   2.260   3.110   1.803
 3564SOL     OW11347   2.973   3.638   0.237
 3564SOL    HW111348   2.913   3.576   0.287
 3564SOL    HW211349   3.004   3.594   0.152
 3565SOL     OW11350   2.064   2.147   1.498
 3565SOL    HW111351   1.984   2.207   1.485
 3565SOL    HW211352   2.054   2.098   1.584
 3566SOL     OW11353   3.494   3.239   0.081
 3566SOL    HW111354   3.462   3.333   0.071
 3566SOL    HW211355   3.418   3.176   0.069
 3567SOL     OW11356   2.326   3.605   0.323
 3567SOL    HW111357   2.359   3.644   0.409
 3567SOL    HW211358   2.402   3.598   0.258
 3568SOL     OW11359   3.262   1.969   0.426
 3568SOL    HW111360   3.238   1.932   0.336
 3568SOL    HW211361   3.361   1.985   0.430
 3569SOL     OW11362   2.111   3.647   1.241
 3569SOL    HW111363   2.168   3.582   1.291
 3569SOL    HW211364   2.095   3.614   1.148
 3570SOL     OW11365   2.802   3.560   0.904
 3570SOL    HW111366   2.882   3.503   0.925
 3570SOL    HW211367   2.753   3.520   0.827
 3571SOL     OW11368   2.244   2.562   0.480
 3571SOL    HW111369   2.289   2.472   0.477
 3571SOL    HW211370   2.150   2.551   0.513
 3572SOL     OW11371   3.409   2.084   1.729
 3572SOL    HW111372   3.404   2.121   1.821
 3572SOL    HW211373   3.337   2.015   1.717
 3573SOL     OW11374   2.476   1.984   0.117
 3573SOL    HW111375   2.574   1.962   0.124
 3573SOL    HW211376   2.445   1.967   0.024
 3574SOL     OW11377   2.643   2.126   1.749
 3574SOL    HW111378   2.710   2.065   1.792
 3574SOL    HW211379   2.570   2.145   1.814
 3575SOL     OW11380   2.750   3.376   1.195
 3575SOL    HW111381   2.727   3.351   1.101
 3575SOL    HW211382   2.811   3.307   1.234
 3576SOL     OW11383   3.213   2.452   1.433
 3576SOL    HW111384   3.241   2.409   1.518
 3576SOL    HW211385   3.238   2.548   1.434
 3577SOL     OW11386   2.665   3.264   0.924
 3577SOL    HW111387   2.755   3.278   0.882
 3577SOL    HW211388   2.594   3.266   0.853
 3578SOL     OW11389   2.784   2.365   0.899
 3578SOL    HW111390   2.759   2.356   0.803
 3578SOL    HW211391   2.832   2.283   0.930
 3579SOL     OW11392   2.401   1.926   0.512
 3579SOL    HW111393   2.320   1.927   0.570
 3579SOL    HW211394   2.404   2.009   0.457
 3580SOL     OW11395   3.296   3.050   0.041
 3580SOL    HW111396   3.328   2.974   0.098
 3580SOL    HW211397   3.204   3.077   0.071
 3581SOL     OW11398   2.159   1.897   0.171
 3581SOL    HW111399   2.208   1.981   0.150
 3581SOL    HW211400   2.221   1.832   0.216
 3582SOL     OW11401   2.797   2.098   0.480
 3582SOL    HW111402   2.749   2.139   0.402
 3582SOL    HW211403   2.896   2.096   0.461
 3583SOL     OW11404   3.089   3.432   0.793
 3583SOL    HW111405   3.110   3.506   0.728
 3583SOL    HW211406   3.157   3.432   0.866
 3584SOL     OW11407   2.321   3.014   0.741
 3584SOL    HW111408   2.250   2.987   0.806
 3584SOL    HW211409   2.295   2.986   0.648
 3585SOL     OW11410   3.133   3.659   0.591
 3585SOL    HW111411   3.177   3.723   0.527
 3585SOL    HW211412   3.083   3.711   0.661
 3586SOL     OW11413   1.940   2.418   1.386
 3586SOL    HW111414   2.032   2.417   1.345
 3586SOL    HW211415   1.934   2.492   1.453
 3587SOL     OW11416   2.423   2.084   1.147
 3587SOL    HW111417   2.461   2.000   1.184
 3587SOL    HW211418   2.335   2.103   1.191
 3588SOL     OW11419   2.879   1.901   0.753
 3588SOL    HW111420   2.807   1.906   0.684
 3588SOL    HW211421   2.855   1.832   0.822
 3589SOL     OW11422   3.291   3.035   0.867
 3589SOL    HW111423   3.236   2.951   0.860
 3589SOL    HW211424   3.317   3.064   0.775
 3590SOL     OW11425   3.328   2.452   0.992
 3590SOL    HW111426   3.298   2.357   0.999
 3590SOL    HW211427   3.401   2.468   1.058
 3591SOL     OW11428   3.719   2.695   0.377
 3591SOL    HW111429   3.761   2.631   0.441
 3591SOL    HW211430   3.681   2.644   0.299
 3592SOL     OW11431   2.350   3.247   0.174
 3592SOL    HW111432   2.263   3.232   0.221
 3592SOL    HW211433   2.333   3.273   0.079
 3593SOL     OW11434   3.526   3.142   0.657
 3593SOL    HW111435   3.625   3.150   0.671
 3593SOL    HW211436   3.481   3.226   0.688
 3594SOL     OW11437   3.252   2.437   0.078
 3594SOL    HW111438   3.198   2.416   0.159
 3594SOL    HW211439   3.343   2.396   0.087
 3595SOL     OW11440   2.389   2.118   0.328
 3595SOL    HW111441   2.416   2.059   0.253
 3595SOL    HW211442   2.389   2.213   0.297
 3596SOL     OW11443   3.616   3.085   1.588
 3596SOL    HW111444   3.707   3.046   1.575
 3596SOL    HW211445   3.624   3.181   1.612
 3597SOL     OW11446   2.926   3.209   1.340
 3597SOL    HW111447   2.846   3.186   1.395
 3597SOL    HW211448   3.009   3.183   1.389
 3598SOL     OW11449   3.454   3.491   1.625
 3598SOL    HW111450   3.481   3.525   1.535
 3598SOL    HW211451   3.533   3.453   1.671
 3599SOL     OW11452   2.973   3.057   1.100
 3599SOL    HW111453   2.933   3.101   1.181
 3599SOL    HW211454   2.932   3.094   1.017
 3600SOL     OW11455   3.500   2.961   1.079
 3600SOL    HW111456   3.505   3.042   1.138
 3600SOL    HW211457   3.414   2.963   1.028
 3601SOL     OW11458   2.777   1.951   1.402
 3601SOL    HW111459   2.802   1.931   1.307
 3601SOL    HW211460   2.849   2.007   1.444
 3602SOL     OW11461   2.272   2.675   1.251
 3602SOL    HW111462   2.358   2.687   1.301
 3602SOL    HW211463   2.230   2.588   1.278
 3603SOL     OW11464   3.136   2.248   1.262
 3603SOL    HW111465   3.157   2.322   1.326
 3603SOL    HW211466   3.047   2.265   1.219
 3604SOL     OW11467   1.926   3.426   1.331
 3604SOL    HW111468   1.880   3.508   1.297
 3604SOL    HW211469   2.024   3.445   1.340
 3605SOL     OW11470   2.229   2.962   0.501
 3605SOL    HW111471   2.222   3.045   0.445
 3605SOL    HW211472   2.233   2.882   0.441
 3606SOL     OW11473   3.114   3.210   0.388
 3606SOL    HW111474   3.164   3.287   0.428
 3606SOL    HW211475   3.019   3.212   0.420
 3607SOL     OW11476   3.134   3.307   1.142
 3607SOL    HW111477   3.181   3.320   1.229
 3607SOL    HW211478   3.068   3.233   1.151
 3608SOL     OW11479   3.444   2.501   0.472
 3608SOL    HW111480   3.413   2.562   0.545
 3608SOL    HW211481   3.494   2.553   0.403
 3609SOL     OW11482   2.216   3.372   1.329
 3609SOL    HW111483   2.195   3.328   1.242
 3609SOL    HW211484   2.313   3.398   1.332
 3610SOL     OW11485   2.264   2.613   1.598
 3610SOL    HW111486   2.332   2.668   1.551
 3610SOL    HW211487   2.304   2.525   1.625
 3611SOL     OW11488   3.449   2.641   1.670
 3611SOL    HW111489   3.357   2.679   1.665
 3611SOL    HW211490   3.509   2.688   1.605
 3612SOL     OW11491   2.875   1.967   1.770
 3612SOL    HW111492   2.881   2.052   1.718
 3612SOL    HW211493   2.907   1.891   1.713
 3613SOL     OW11494   2.366   1.912   1.740
 3613SOL    HW111495   2.324   1.855   1.670
 3613SOL    HW211496   2.300   1.981   1.772
 3614SOL     OW11497   3.222   2.724   1.045
 3614SOL    HW111498   3.147   2.724   0.979
 3614SOL    HW211499   3.259   2.632   1.054
 3615SOL     OW11500   3.071   2.387   0.275
 3615SOL    HW111501   3.084   2.303   0.329
 3615SOL    HW211502   3.042   2.461   0.335
 3616SOL     OW11503   2.169   2.075   1.231
 3616SOL    HW111504   2.146   2.112   1.321
 3616SOL    HW211505   2.139   1.980   1.225
 3617SOL     OW11506   1.899   3.172   1.282
 3617SOL    HW111507   1.952   3.123   1.350
 3617SOL    HW211508   1.921   3.270   1.287
 3618SOL     OW11509   3.590   2.797   1.854
 3618SOL    HW111510   3.544   2.790   1.765
 3618SOL    HW211511   3.528   2.841   1.920
 3619SOL     OW11512   2.169   1.925   0.618
 3619SOL    HW111513   2.158   2.019   0.651
 3619SOL    HW211514   2.164   1.862   0.695
 3620SOL     OW11515   3.484   2.229   0.374
 3620SOL    HW111516   3.486   2.153   0.438
 3620SOL    HW211517   3.436   2.306   0.414
 3621SOL     OW11518   2.842   3.435   1.700
 3621SOL    HW111519   2.822   3.479   1.612
 3621SOL    HW211520   2.881   3.344   1.684
 3622SOL     OW11521   3.721   3.380   1.605
 3622SOL    HW111522   3.735   3.407   1.510
 3622SOL    HW211523   3.804   3.402   1.658
 3623SOL     OW11524   2.212   2.760   1.804
 3623SOL    HW111525   2.288   2.804   1.852
 3623SOL    HW211526   2.247   2.713   1.722
 3624SOL     OW11527   3.402   2.136   0.125
 3624SOL    HW111528   3.341   2.061   0.148
 3624SOL    HW211529   3.424   2.188   0.208
 3625SOL     OW11530   3.165   2.700   0.042
 3625SOL    HW111531   3.199   2.607   0.057
 3625SOL    HW211532   3.183   2.727  -0.053
 3626SOL     OW11533   2.930   3.195   0.849
 3626SOL    HW111534   2.937   3.111   0.794
 3626SOL    HW211535   2.992   3.264   0.813
 3627SOL     OW11536   2.181   2.672   0.949
 3627SOL    HW111537   2.274   2.708   0.954
 3627SOL    HW211538   2.175   2.587   1.001
 3628SOL     OW11539   2.201   2.371   1.006
 3628SOL    HW111540   2.149   2.288   0.989
 3628SOL    HW211541   2.278   2.376   0.942
 3629SOL     OW11542   3.000   2.242   1.678
 3629SOL    HW111543   2.955   2.305   1.742
 3629SOL    HW211544   3.093   2.273   1.661
 3630SOL     OW11545   3.022   2.069   1.477
 3630SOL    HW111546   3.022   2.133   1.554
 3630SOL    HW211547   3.050   2.117   1.394
 3631SOL     OW11548   1.870   3.188   0.200
 3631SOL    HW111549   1.777   3.209   0.169
 3631SOL    HW211550   1.880   3.089   0.213
 3632SOL     OW11551   1.950   3.663   0.927
 3632SOL    HW111552   1.908   3.577   0.900
 3632SOL    HW211553   2.044   3.666   0.893
 3633SOL     OW11554   2.366   3.430   0.910
 3633SOL    HW111555   2.432   3.504   0.919
 3633SOL    HW211556   2.410   3.351   0.868
 3634SOL     OW11557   1.902   2.406   1.114
 3634SOL    HW111558   1.987   2.373   1.073
 3634SOL    HW211559   1.915   2.421   1.212
 3635SOL     OW11560   2.051   2.382   1.722
 3635SOL    HW111561   2.110   2.342   1.652
 3635SOL    HW211562   1.993   2.453   1.681
 3636SOL     OW11563   3.231   2.812   1.660
 3636SOL    HW111564   3.270   2.901   1.680
 3636SOL    HW211565   3.241   2.792   1.563
 3637SOL     OW11566   3.519   2.466   1.206
 3637SOL    HW111567   3.481   2.397   1.268
 3637SOL    HW211568   3.601   2.430   1.162
 3638SOL     OW11569   2.114   3.426   1.744
 3638SOL    HW111570   2.084   3.483   1.820
 3638SOL    HW211571   2.107   3.329   1.770
 3639SOL     OW11572   2.792   3.540   1.465
 3639SOL    HW111573   2.768   3.522   1.370
 3639SOL    HW211574   2.822   3.634   1.475
 3640SOL     OW11575   2.021   2.999   1.466
 3640SOL    HW111576   2.043   2.938   1.542
 3640SOL    HW211577   2.031   2.950   1.380
 3641SOL     OW11578   3.209   2.921   1.234
 3641SOL    HW111579   3.233   2.858   1.160
 3641SOL    HW211580   3.119   2.961   1.216
 3642SOL     OW11581   3.164   2.717   0.309
 3642SOL    HW111582   3.078   2.686   0.351
 3642SOL    HW211583   3.160   2.703   0.210
 3643SOL     OW11584   3.621   3.609   1.154
 3643SOL    HW111585   3.682   3.639   1.081
 3643SOL    HW211586   3.583   3.520   1.132
 3644SOL     OW11587   3.114   3.593   1.128
 3644SOL    HW111588   3.198   3.598   1.074
 3644SOL    HW211589   3.091   3.497   1.146
 3645SOL     OW11590   1.945   3.120   1.022
 3645SOL    HW111591   1.940   3.119   1.122
 3645SOL    HW211592   1.862   3.079   0.984
 3646SOL     OW11593   2.550   3.524   1.716
 3646SOL    HW111594   2.494   3.605   1.725
 3646SOL    HW211595   2.602   3.528   1.630
 3647SOL     OW11596   2.765   1.948   0.133
 3647SOL    HW111597   2.816   1.949   0.047
 3647SOL    HW211598   2.821   1.906   0.204
 3648SOL     OW11599   3.588   1.997   0.523
 3648SOL    HW111600   3.661   1.980   0.456
 3648SOL    HW211601   3.557   1.910   0.561
 3649SOL     OW11602   3.250   3.435   0.477
 3649SOL    HW111603   3.317   3.447   0.403
 3649SOL    HW211604   3.210   3.524   0.500
 3650SOL     OW11605   1.992   3.656   1.851
 3650SOL    HW111606   1.951   3.582   1.904
 3650SOL    HW211607   2.056   3.707   1.909
 3651SOL     OW11608   3.142   2.789   0.672
 3651SOL    HW111609   3.202   2.708   0.674
 3651SOL    HW211610   3.182   2.858   0.612
 3652SOL     OW11611   2.692   3.135   1.422
 3652SOL    HW111612   2.687   3.168   1.517
 3652SOL    HW211613   2.606   3.154   1.376
 3653SOL     OW11614   2.534   3.478   0.154
 3653SOL    HW111615   2.543   3.488   0.055
 3653SOL    HW211616   2.494   3.389   0.175
 3654SOL     OW11617   3.512   3.582   1.394
 3654SOL    HW111618   3.565   3.592   1.310
 3654SOL    HW211619   3.485   3.672   1.428
 3655SOL     OW11620   3.703   2.037   0.963
 3655SOL    HW111621   3.742   1.952   0.927
 3655SOL    HW211622   3.605   2.039   0.944
 3656SOL     OW11623   2.125   2.188   0.720
 3656SOL    HW111624   2.046   2.239   0.686
 3656SOL    HW211625   2.116   2.173   0.818
 3657SOL     OW11626   3.056   3.474   0.031
 3657SOL    HW111627   3.062   3.381   0.068
 3657SOL    HW211628   2.997   3.474  -0.049
 3658SOL     OW11629   3.366   3.469   0.044
 3658SOL    HW111630   3.274   3.506   0.051
 3658SOL    HW211631   3.404   3.489  -0.046
 3659SOL     OW11632   2.234   3.150   1.490
 3659SOL    HW111633   2.221   3.243   1.456
 3659SOL    HW211634   2.150   3.098   1.477
 3660SOL     OW11635   3.476   3.154   1.289
 3660SOL    HW111636   3.536   3.157   1.369
 3660SOL    HW211637   3.401   3.218   1.302
 3661SOL     OW11638   2.901   2.960   0.696
 3661SOL    HW111639   2.831   2.913   0.750
 3661SOL    HW211640   2.960   2.892   0.653
 3662SOL     OW11641   2.876   2.098   0.971
 3662SOL    HW111642   2.868   2.062   0.878
 3662SOL    HW211643   2.874   2.022   1.036
 3663SOL     OW11644   2.452   3.349   0.491
 3663SOL    HW111645   2.494   3.291   0.421
 3663SOL    HW211646   2.408   3.428   0.447
 3664SOL     OW11647   3.571   2.247   1.381
 3664SOL    HW111648   3.644   2.316   1.385
 3664SOL    HW211649   3.599   2.172   1.322
 3665SOL     OW11650   2.117   3.210   0.290
 3665SOL    HW111651   2.021   3.211   0.263
 3665SOL    HW211652   2.129   3.263   0.374
 3666SOL     OW11653   1.967   2.875   1.726
 3666SOL    HW111654   1.890   2.842   1.780
 3666SOL    HW211655   2.052   2.845   1.768
 3667SOL     OW11656   2.534   2.065   1.489
 3667SOL    HW111657   2.624   2.049   1.449
 3667SOL    HW211658   2.542   2.070   1.588
 3668SOL     OW11659   1.937   2.207   0.033
 3668SOL    HW111660   1.845   2.179   0.004
 3668SOL    HW211661   1.968   2.284  -0.023
 3669SOL     OW11662   3.302   2.718   1.398
 3669SOL    HW111663   3.245   2.770   1.335
 3669SOL    HW211664   3.398   2.730   1.374
 3670SOL     OW11665   1.934   2.028   0.318
 3670SOL    HW111666   1.917   2.111   0.264
 3670SOL    HW211667   2.024   1.991   0.296
 3671SOL     OW11668   3.045   3.197   0.119
 3671SOL    HW111669   2.946   3.186   0.121
 3671SOL    HW211670   3.079   3.212   0.212
 3672SOL     OW11671   3.355   3.629   0.959
 3672SOL    HW111672   3.388   3.693   0.890
 3672SOL    HW211673   3.421   3.623   1.034
 3673SOL     OW11674   3.312   3.082   1.633
 3673SOL    HW111675   3.303   3.072   1.732
 3673SOL    HW211676   3.408   3.075   1.607
 3674SOL     OW11677   2.252   3.603   1.560
 3674SOL    HW111678   2.161   3.644   1.558
 3674SOL    HW211679   2.245   3.509   1.592
 3675SOL     OW11680   3.536   2.745   1.254
 3675SOL    HW111681   3.509   2.656   1.217
 3675SOL    HW211682   3.537   2.813   1.181
 3676SOL     OW11683   3.087   2.187   0.449
 3676SOL    HW111684   3.152   2.113   0.438
 3676SOL    HW211685   3.107   2.237   0.533
 3677SOL     OW11686   2.456   2.607   0.652
 3677SOL    HW111687   2.506   2.692   0.633
 3677SOL    HW211688   2.368   2.609   0.604
 3678SOL     OW11689   3.639   2.204   1.642
 3678SOL    HW111690   3.622   2.235   1.548
 3678SOL    HW211691   3.555   2.167   1.680
 3679SOL     OW11692   3.592   2.796   1.517
 3679SOL    HW111693   3.630   2.887   1.532
 3679SOL    HW211694   3.584   2.779   1.418
 3680SOL     OW11695   2.721   3.236   0.016
 3680SOL    HW111696   2.675   3.251   0.104
 3680SOL    HW211697   2.765   3.321  -0.014
 3681SOL     OW11698   2.523   3.652   0.953
 3681SOL    HW111699   2.477   3.740   0.940
 3681SOL    HW211700   2.622   3.664   0.946
 3682SOL     OW11701   2.945   2.846   0.087
 3682SOL    HW111702   2.922   2.899   0.005
 3682SOL    HW211703   3.026   2.790   0.068
 3683SOL     OW11704   3.723   3.431   0.851
 3683SOL    HW111705   3.652   3.419   0.781
 3683SOL    HW211706   3.724   3.352   0.911
 3684SOL     OW11707   2.083   3.176   1.844
 3684SOL    HW111708   2.018   3.103   1.823
 3684SOL    HW211709   2.087   3.190   1.942
 3685SOL     OW11710   1.941   3.102   0.653
 3685SOL    HW111711   1.940   3.055   0.741
 3685SOL    HW211712   2.023   3.074   0.602
 3686SOL     OW11713   2.534   3.253   1.624
 3686SOL    HW111714   2.456   3.203   1.662
 3686SOL    HW211715   2.531   3.348   1.655
 3687SOL     OW11716   3.686   2.054   1.227
 3687SOL    HW111717   3.682   1.964   1.271
 3687SOL    HW211718   3.689   2.043   1.128
 3688SOL     OW11719   2.290   2.286   0.520
 3688SOL    HW111720   2.320   2.214   0.458
 3688SOL    HW211721   2.251   2.246   0.603
 3689SOL     OW11722   3.567   3.349   1.104
 3689SOL    HW111723   3.474   3.324   1.077
 3689SOL    HW211724   3.593   3.299   1.186
 3690SOL     OW11725   2.179   2.409   1.280
 3690SOL    HW111726   2.217   2.350   1.352
 3690SOL    HW211727   2.219   2.383   1.192
 3691SOL     OW11728   2.674   3.448   0.687
 3691SOL    HW111729   2.706   3.458   0.593
 3691SOL    HW211730   2.595   3.386   0.689
 3692SOL     OW11731   3.286   2.076   1.112
 3692SOL    HW111732   3.338   2.011   1.167
 3692SOL    HW211733   3.237   2.139   1.173
 3693SOL     OW11734   2.863   1.896   1.154
 3693SOL    HW111735   2.800   1.824   1.123
 3693SOL    HW211736   2.956   1.860   1.154
 3694SOL     OW11737   2.632   3.192   0.301
 3694SOL    HW111738   2.586   3.105   0.318
 3694SOL    HW211739   2.723   3.189   0.342
 3695SOL     OW11740   2.480   3.429   1.284
 3695SOL    HW111741   2.475   3.511   1.341
 3695SOL    HW211742   2.569   3.426   1.239
 3696SOL     OW11743   3.214   1.914   0.168
 3696SOL    HW111744   3.249   1.873   0.084
 3696SOL    HW211745   3.124   1.876   0.188
 3697SOL     OW11746   3.162   2.315   0.691
 3697SOL    HW111747   3.103   2.395   0.695
 3697SOL    HW211748   3.177   2.280   0.784
 3698SOL     OW11749   3.455   2.083   0.882
 3698SOL    HW111750   3.371   2.082   0.936
 3698SOL    HW211751   3.457   2.166   0.826
 3699SOL     OW11752   1.901   2.939   0.300
 3699SOL    HW111753   2.000   2.928   0.291
 3699SOL    HW211754   1.861   2.853   0.332
 3700SOL     OW11755   2.737   3.508   0.337
 3700SOL    HW111756   2.660   3.473   0.283
 3700SOL    HW211757   2.705   3.579   0.399
 3701SOL     OW11758   2.092   2.490   1.975
 3701SOL    HW111759   1.999   2.488   2.012
 3701SOL    HW211760   2.093   2.451   1.883
 3702SOL     OW11761   2.087   2.137   2.858
 3702SOL    HW111762   2.122   2.120   2.950
 3702SOL    HW211763   1.999   2.092   2.846
 3703SOL     OW11764   1.881   2.230   2.509
 3703SOL    HW111765   1.799   2.273   2.548
 3703SOL    HW211766   1.853   2.157   2.446
 3704SOL     OW11767   2.431   3.137   3.027
 3704SOL    HW111768   2.338   3.130   2.990
 3704SOL    HW211769   2.442   3.226   3.071
 3705SOL     OW11770   3.417   3.373   2.565
 3705SOL    HW111771   3.360   3.357   2.646
 3705SOL    HW211772   3.358   3.383   2.485
 3706SOL     OW11773   2.997   2.565   2.579
 3706SOL    HW111774   3.054   2.643   2.554
 3706SOL    HW211775   2.937   2.591   2.655
 3707SOL     OW11776   3.617   2.469   2.093
 3707SOL    HW111777   3.605   2.456   1.994
 3707SOL    HW211778   3.587   2.388   2.142
 3708SOL     OW11779   2.197   3.297   2.923
 3708SOL    HW111780   2.119   3.266   2.870
 3708SOL    HW211781   2.255   3.355   2.866
 3709SOL     OW11782   3.322   3.367   3.201
 3709SOL    HW111783   3.346   3.461   3.227
 3709SOL    HW211784   3.306   3.313   3.283
 3710SOL     OW11785   2.300   2.254   3.361
 3710SOL    HW111786   2.382   2.198   3.370
 3710SOL    HW211787   2.219   2.196   3.365
 3711SOL     OW11788   3.465   2.309   2.599
 3711SOL    HW111789   3.391   2.355   2.549
 3711SOL    HW211790   3.516   2.377   2.652
 3712SOL     OW11791   2.093   3.575   2.345
 3712SOL    HW111792   2.127   3.652   2.399
 3712SOL    HW211793   2.137   3.575   2.255
 3713SOL     OW11794   2.092   3.296   2.400
 3713SOL    HW111795   2.066   3.392   2.400
 3713SOL    HW211796   2.021   3.242   2.445
 3714SOL     OW11797   2.102   2.953   2.748
 3714SOL    HW111798   2.116   2.869   2.800
 3714SOL    HW211799   2.047   3.017   2.803
 3715SOL     OW11800   2.482   3.648   3.301
 3715SOL    HW111801   2.390   3.631   3.336
 3715SOL    HW211802   2.510   3.740   3.327
 3716SOL     OW11803   3.456   1.976   3.342
 3716SOL    HW111804   3.438   2.043   3.270
 3716SOL    HW211805   3.453   2.022   3.431
 3717SOL     OW11806   1.984   2.505   2.425
 3717SOL    HW111807   1.939   2.417   2.442
 3717SOL    HW211808   1.983   2.559   2.509
 3718SOL     OW11809   3.704   3.629   2.221
 3718SOL    HW111810   3.758   3.600   2.301
 3718SOL    HW211811   3.734   3.719   2.192
 3719SOL     OW11812   1.889   3.458   1.979
 3719SOL    HW111813   1.870   3.362   2.000
 3719SOL    HW211814   1.856   3.516   2.054
 3720SOL     OW11815   3.551   2.784   2.474
 3720SOL    HW111816   3.646   2.755   2.482
 3720SOL    HW211817   3.543   2.849   2.399
 3721SOL     OW11818   3.503   2.970   2.294
 3721SOL    HW111819   3.589   2.972   2.242
 3721SOL    HW211820   3.517   3.017   2.382
 3722SOL     OW11821   2.475   3.227   2.588
 3722SOL    HW111822   2.426   3.140   2.597
 3722SOL    HW211823   2.452   3.270   2.501
 3723SOL     OW11824   3.155   3.090   3.285
 3723SOL    HW111825   3.192   3.017   3.227
 3723SOL    HW211826   3.207   3.095   3.370
 3724SOL     OW11827   2.671   1.866   2.364
 3724SOL    HW111828   2.711   1.957   2.355
 3724SOL    HW211829   2.571   1.874   2.370
 3725SOL     OW11830   2.059   2.838   3.126
 3725SOL    HW111831   2.148   2.793   3.112
 3725SOL    HW211832   1.986   2.773   3.107
 3726SOL     OW11833   3.387   2.861   2.052
 3726SOL    HW111834   3.324   2.785   2.065
 3726SOL    HW211835   3.435   2.879   2.138
 3727SOL     OW11836   3.049   3.654   3.478
 3727SOL    HW111837   3.073   3.714   3.402
 3727SOL    HW211838   3.056   3.559   3.448
 3728SOL     OW11839   3.328   3.279   2.815
 3728SOL    HW111840   3.269   3.285   2.895
 3728SOL    HW211841   3.313   3.191   2.769
 3729SOL     OW11842   3.529   3.576   2.434
 3729SOL    HW111843   3.488   3.553   2.346
 3729SOL    HW211844   3.511   3.502   2.499
 3730SOL     OW11845   2.460   2.591   2.132
 3730SOL    HW111846   2.484   2.660   2.064
 3730SOL    HW211847   2.382   2.624   2.186
 3731SOL     OW11848   3.143   2.207   2.806
 3731SOL    HW111849   3.057   2.157   2.793
 3731SOL    HW211850   3.205   2.153   2.862
 3732SOL     OW11851   3.438   3.524   2.169
 3732SOL    HW111852   3.527   3.570   2.172
 3732SOL    HW211853   3.417   3.500   2.074
 3733SOL     OW11854   3.256   2.331   3.536
 3733SOL    HW111855   3.236   2.374   3.624
 3733SOL    HW211856   3.334   2.269   3.545
 3734SOL     OW11857   2.853   2.272   3.104
 3734SOL    HW111858   2.776   2.306   3.158
 3734SOL    HW211859   2.819   2.221   3.025
 3735SOL     OW11860   1.938   2.673   2.651
 3735SOL    HW111861   2.037   2.661   2.660
 3735SOL    HW211862   1.914   2.768   2.672
 3736SOL     OW11863   1.992   3.683   3.433
 3736SOL    HW111864   1.982   3.668   3.532
 3736SOL    HW211865   1.906   3.719   3.397
 3737SOL     OW11866   2.727   2.210   2.057
 3737SOL    HW111867   2.786   2.273   2.008
 3737SOL    HW211868   2.746   2.116   2.028
 3738SOL     OW11869   3.581   2.447   3.693
 3738SOL    HW111870   3.555   2.536   3.657
 3738SOL    HW211871   3.579   2.379   3.620
 3739SOL     OW11872   3.224   3.006   2.407
 3739SOL    HW111873   3.307   2.977   2.359
 3739SOL    HW211874   3.175   3.073   2.351
 3740SOL     OW11875   2.412   2.058   2.747
 3740SOL    HW111876   2.407   2.053   2.847
 3740SOL    HW211877   2.414   2.154   2.718
 3741SOL     OW11878   2.870   3.318   2.339
 3741SOL    HW111879   2.824   3.390   2.287
 3741SOL    HW211880   2.866   3.338   2.437
 3742SOL     OW11881   2.213   3.663   2.715
 3742SOL    HW111882   2.263   3.577   2.721
 3742SOL    HW211883   2.278   3.740   2.712
 3743SOL     OW11884   3.657   2.928   2.735
 3743SOL    HW111885   3.595   2.913   2.659
 3743SOL    HW211886   3.605   2.939   2.820
 3744SOL     OW11887   3.089   3.412   3.368
 3744SOL    HW111888   3.095   3.335   3.432
 3744SOL    HW211889   3.037   3.386   3.288
 3745SOL     OW11890   2.183   2.805   2.104
 3745SOL    HW111891   2.265   2.844   2.062
 3745SOL    HW211892   2.156   2.723   2.055
 3746SOL     OW11893   3.320   2.597   2.590
 3746SOL    HW111894   3.315   2.532   2.665
 3746SOL    HW211895   3.400   2.656   2.603
 3747SOL     OW11896   2.323   3.128   3.589
 3747SOL    HW111897   2.273   3.129   3.503
 3747SOL    HW211898   2.260   3.110   3.665
 3748SOL     OW11899   2.973   3.638   2.099
 3748SOL    HW111900   2.913   3.576   2.149
 3748SOL    HW211901   3.004   3.594   2.014
 3749SOL     OW11902   3.494   3.239   1.943
 3749SOL    HW111903   3.462   3.333   1.933
 3749SOL    HW211904   3.418   3.176   1.931
 3750SOL     OW11905   2.326   3.605   2.185
 3750SOL    HW111906   2.359   3.644   2.271
 3750SOL    HW211907   2.402   3.598   2.120
 3751SOL     OW11908   3.262   1.969   2.288
 3751SOL    HW111909   3.238   1.932   2.198
 3751SOL    HW211910   3.361   1.985   2.292
 3752SOL     OW11911   2.111   3.647   3.103
 3752SOL    HW111912   2.168   3.582   3.153
 3752SOL    HW211913   2.095   3.614   3.010
 3753SOL     OW11914   2.802   3.560   2.766
 3753SOL    HW111915   2.882   3.503   2.787
 3753SOL    HW211916   2.753   3.520   2.689
 3754SOL     OW11917   2.244   2.562   2.342
 3754SOL    HW111918   2.289   2.472   2.339
 3754SOL    HW211919   2.150   2.551   2.375
 3755SOL     OW11920   3.409   2.084   3.591
 3755SOL    HW111921   3.404   2.121   3.683
 3755SOL    HW211922   3.337   2.015   3.579
 3756SOL     OW11923   2.476   1.984   1.979
 3756SOL    HW111924   2.574   1.962   1.986
 3756SOL    HW211925   2.445   1.967   1.886
 3757SOL     OW11926   2.750   3.376   3.057
 3757SOL    HW111927   2.727   3.351   2.963
 3757SOL    HW211928   2.811   3.307   3.096
 3758SOL     OW11929   3.213   2.452   3.295
 3758SOL    HW111930   3.241   2.409   3.380
 3758SOL    HW211931   3.238   2.548   3.296
 3759SOL     OW11932   2.665   3.264   2.786
 3759SOL    HW111933   2.755   3.278   2.744
 3759SOL    HW211934   2.594   3.266   2.715
 3760SOL     OW11935   2.401   1.926   2.374
 3760SOL    HW111936   2.320   1.927   2.432
 3760SOL    HW211937   2.404   2.009   2.319
 3761SOL     OW11938   3.296   3.050   1.903
 3761SOL    HW111939   3.328   2.974   1.960
 3761SOL    HW211940   3.204   3.077   1.933
 3762SOL     OW11941   2.159   1.897   2.033
 3762SOL    HW111942   2.208   1.981   2.012
 3762SOL    HW211943   2.221   1.832   2.078
 3763SOL     OW11944   2.797   2.098   2.342
 3763SOL    HW111945   2.749   2.139   2.264
 3763SOL    HW211946   2.896   2.096   2.323
 3764SOL     OW11947   3.089   3.432   2.655
 3764SOL    HW111948   3.110   3.506   2.590
 3764SOL    HW211949   3.157   3.432   2.728
 3765SOL     OW11950   2.321   3.014   2.603
 3765SOL    HW111951   2.250   2.987   2.668
 3765SOL    HW211952   2.295   2.986   2.510
 3766SOL     OW11953   3.133   3.659   2.453
 3766SOL    HW111954   3.177   3.723   2.389
 3766SOL    HW211955   3.083   3.711   2.523
 3767SOL     OW11956   1.940   2.418   3.248
 3767SOL    HW111957   2.032   2.417   3.207
 3767SOL    HW211958   1.934   2.492   3.315
 3768SOL     OW11959   2.423   2.084   3.009
 3768SOL    HW111960   2.461   2.000   3.046
 3768SOL    HW211961   2.335   2.103   3.053
 3769SOL     OW11962   2.879   1.901   2.615
 3769SOL    HW111963   2.807   1.906   2.546
 3769SOL    HW211964   2.855   1.832   2.684
 3770SOL     OW11965   3.291   3.035   2.729
 3770SOL    HW111966   3.236   2.951   2.722
 3770SOL    HW211967   3.317   3.064   2.637
 3771SOL     OW11968   3.328   2.452   2.854
 3771SOL    HW111969   3.298   2.357   2.861
 3771SOL    HW211970   3.401   2.468   2.920
 3772SOL     OW11971   3.719   2.695   2.239
 3772SOL    HW111972   3.761   2.631   2.303
 3772SOL    HW211973   3.681   2.644   2.161
 3773SOL     OW11974   2.350   3.247   2.036
 3773SOL    HW111975   2.263   3.232   2.083
 3773SOL    HW211976   2.333   3.273   1.941
 3774SOL     OW11977   3.526   3.142   2.519
 3774SOL    HW111978   3.625   3.150   2.533
 3774SOL    HW211979   3.481   3.226   2.550
 3775SOL     OW11980   3.252   2.437   1.940
 3775SOL    HW111981   3.198   2.416   2.021
 3775SOL    HW211982   3.343   2.396   1.949
 3776SOL     OW11983   2.389   2.118   2.190
 3776SOL    HW111984   2.416   2.059   2.115
 3776SOL    HW211985   2.389   2.213   2.159
 3777SOL     OW11986   3.616   3.085   3.450
 3777SOL    HW111987   3.707   3.046   3.437
 3777SOL    HW211988   3.624   3.181   3.474
 3778SOL     OW11989   2.926   3.209   3.202
 3778SOL    HW111990   2.846   3.186   3.257
 3778SOL    HW211991   3.009   3.183   3.251
 3779SOL     OW11992   3.454   3.491   3.487
 3779SOL    HW111993   3.481   3.525   3.397
 3779SOL    HW211994   3.533   3.453   3.533
 3780SOL     OW11995   2.973   3.057   2.962
 3780SOL    HW111996   2.933   3.101   3.043
 3780SOL    HW211997   2.932   3.094   2.879
 3781SOL     OW11998   3.500   2.961   2.941
 3781SOL    HW111999   3.505   3.042   3.000
 3781SOL    HW212000   3.414   2.963   2.890
 3782SOL     OW12001   2.777   1.951   3.264
 3782SOL    HW112002   2.802   1.931   3.169
 3782SOL    HW212003   2.849   2.007   3.306
 3783SOL     OW12004   2.272   2.675   3.113
 3783SOL    HW112005   2.358   2.687   3.163
 3783SOL    HW212006   2.230   2.588   3.140
 3784SOL     OW12007   3.136   2.248   3.124
 3784SOL    HW112008   3.157   2.322   3.188
 3784SOL    HW212009   3.047   2.265   3.081
 3785SOL     OW12010   1.926   3.426   3.193
 3785SOL    HW112011   1.880   3.508   3.159
 3785SOL    HW212012   2.024   3.445   3.202
 3786SOL     OW12013   2.229   2.962   2.363
 3786SOL    HW112014   2.222   3.045   2.307
 3786SOL    HW212015   2.233   2.882   2.303
 3787SOL     OW12016   3.114   3.210   2.250
 3787SOL    HW112017   3.164   3.287   2.290
 3787SOL    HW212018   3.019   3.212   2.282
 3788SOL     OW12019   3.134   3.307   3.004
 3788SOL    HW112020   3.181   3.320   3.091
 3788SOL    HW212021   3.068   3.233   3.013
 3789SOL     OW12022   3.444   2.501   2.334
 3789SOL    HW112023   3.413   2.562   2.407
 3789SOL    HW212024   3.494   2.553   2.265
 3790SOL     OW12025   2.216   3.372   3.191
 3790SOL    HW112026   2.195   3.328   3.104
 3790SOL    HW212027   2.313   3.398   3.194
 3791SOL     OW12028   2.264   2.613   3.460
 3791SOL    HW112029   2.332   2.668   3.413
 3791SOL    HW212030   2.304   2.525   3.487
 3792SOL     OW12031   2.366   1.912   3.602
 3792SOL    HW112032   2.324   1.855   3.532
 3792SOL    HW212033   2.300   1.981   3.634
 3793SOL     OW12034   3.222   2.724   2.907
 3793SOL    HW112035   3.147   2.724   2.841
 3793SOL    HW212036   3.259   2.632   2.916
 3794SOL     OW12037   3.071   2.387   2.137
 3794SOL    HW112038   3.084   2.303   2.191
 3794SOL    HW212039   3.042   2.461   2.197
 3795SOL     OW12040   2.169   2.075   3.093
 3795SOL    HW112041   2.146   2.112   3.183
 3795SOL    HW212042   2.139   1.980   3.087
 3796SOL     OW12043   1.899   3.172   3.144
 3796SOL    HW112044   1.952   3.123   3.212
 3796SOL    HW212045   1.921   3.270   3.149
 3797SOL     OW12046   3.590   2.797   3.716
 3797SOL    HW112047   3.544   2.790   3.627
 3797SOL    HW212048   3.528   2.841   3.782
 3798SOL     OW12049   2.169   1.925   2.480
 3798SOL    HW112050   2.158   2.019   2.513
 3798SOL    HW212051   2.164   1.862   2.557
 3799SOL     OW12052   3.484   2.229   2.236
 3799SOL    HW112053   3.486   2.153   2.300
 3799SOL    HW212054   3.436   2.306   2.276
 3800SOL     OW12055   2.842   3.435   3.562
 3800SOL    HW112056   2.822   3.479   3.474
 3800SOL    HW212057   2.881   3.344   3.546
 3801SOL     OW12058   3.721   3.380   3.467
 3801SOL    HW112059   3.735   3.407   3.372
 3801SOL    HW212060   3.804   3.402   3.520
 3802SOL     OW12061   2.212   2.760   3.666
 3802SOL    HW112062   2.288   2.804   3.714
 3802SOL    HW212063   2.247   2.713   3.584
 3803SOL     OW12064   3.402   2.136   1.987
 3803SOL    HW112065   3.341   2.061   2.010
 3803SOL    HW212066   3.424   2.188   2.070
 3804SOL     OW12067   3.165   2.700   1.904
 3804SOL    HW112068   3.199   2.607   1.919
 3804SOL    HW212069   3.183   2.727   1.809
 3805SOL     OW12070   2.930   3.195   2.711
 3805SOL    HW112071   2.937   3.111   2.656
 3805SOL    HW212072   2.992   3.264   2.675
 3806SOL     OW12073   2.181   2.672   2.811
 3806SOL    HW112074   2.274   2.708   2.816
 3806SOL    HW212075   2.175   2.587   2.863
 3807SOL     OW12076   2.201   2.371   2.868
 3807SOL    HW112077   2.149   2.288   2.851
 3807SOL    HW212078   2.278   2.376   2.804
 3808SOL     OW12079   3.000   2.242   3.540
 3808SOL    HW112080   2.955   2.305   3.604
 3808SOL    HW212081   3.093   2.273   3.523
 3809SOL     OW12082   3.022   2.069   3.339
 3809SOL    HW112083   3.022   2.133   3.416
 3809SOL    HW212084   3.050   2.117   3.256
 3810SOL     OW12085   1.870   3.188   2.062
 3810SOL    HW112086   1.777   3.209   2.031
 3810SOL    HW212087   1.880   3.089   2.075
 3811SOL     OW12088   1.950   3.663   2.789
 3811SOL    HW112089   1.908   3.577   2.762
 3811SOL    HW212090   2.044   3.666   2.755
 3812SOL     OW12091   2.366   3.430   2.772
 3812SOL    HW112092   2.432   3.504   2.781
 3812SOL    HW212093   2.410   3.351   2.730
 3813SOL     OW12094   1.902   2.406   2.976
 3813SOL    HW112095   1.987   2.373   2.935
 3813SOL    HW212096   1.915   2.421   3.074
 3814SOL     OW12097   3.519   2.466   3.068
 3814SOL    HW112098   3.481   2.397   3.130
 3814SOL    HW212099   3.601   2.430   3.024
 3815SOL     OW12100   2.114   3.426   3.606
 3815SOL    HW112101   2.084   3.483   3.682
 3815SOL    HW212102   2.107   3.329   3.632
 3816SOL     OW12103   2.792   3.540   3.327
 3816SOL    HW112104   2.768   3.522   3.232
 3816SOL    HW212105   2.822   3.634   3.337
 3817SOL     OW12106   2.335   2.362   2.053
 3817SOL    HW112107   2.396   2.442   2.057
 3817SOL    HW212108   2.240   2.393   2.060
 3818SOL     OW12109   2.021   2.999   3.328
 3818SOL    HW112110   2.043   2.938   3.404
 3818SOL    HW212111   2.031   2.950   3.242
 3819SOL     OW12112   3.209   2.921   3.096
 3819SOL    HW112113   3.233   2.858   3.022
 3819SOL    HW212114   3.119   2.961   3.078
 3820SOL     OW12115   3.164   2.717   2.171
 3820SOL    HW112116   3.078   2.686   2.213
 3820SOL    HW212117   3.160   2.703   2.072
 3821SOL     OW12118   3.621   3.609   3.016
 3821SOL    HW112119   3.682   3.639   2.943
 3821SOL    HW212120   3.583   3.520   2.994
 3822SOL     OW12121   3.114   3.593   2.990
 3822SOL    HW112122   3.198   3.598   2.936
 3822SOL    HW212123   3.091   3.497   3.008
 3823SOL     OW12124   1.945   3.120   2.884
 3823SOL    HW112125   1.940   3.119   2.984
 3823SOL    HW212126   1.862   3.079   2.846
 3824SOL     OW12127   2.550   3.524   3.578
 3824SOL    HW112128   2.494   3.605   3.587
 3824SOL    HW212129   2.602   3.528   3.492
 3825SOL     OW12130   3.588   1.997   2.385
 3825SOL    HW112131   3.661   1.980   2.318
 3825SOL    HW212132   3.557   1.910   2.423
 3826SOL     OW12133   3.250   3.435   2.339
 3826SOL    HW112134   3.317   3.447   2.265
 3826SOL    HW212135   3.210   3.524   2.362
 3827SOL     OW12136   1.992   3.656   3.713
 3827SOL    HW112137   1.951   3.582   3.766
 3827SOL    HW212138   2.056   3.707   3.771
 3828SOL     OW12139   3.142   2.789   2.534
 3828SOL    HW112140   3.202   2.708   2.536
 3828SOL    HW212141   3.182   2.858   2.474
 3829SOL     OW12142   2.692   3.135   3.284
 3829SOL    HW112143   2.687   3.168   3.379
 3829SOL    HW212144   2.606   3.154   3.238
 3830SOL     OW12145   2.534   3.478   2.016
 3830SOL    HW112146   2.543   3.488   1.917
 3830SOL    HW212147   2.494   3.389   2.037
 3831SOL     OW12148   3.512   3.582   3.256
 3831SOL    HW112149   3.565   3.592   3.172
 3831SOL    HW212150   3.485   3.672   3.290
 3832SOL     OW12151   3.703   2.037   2.825
 3832SOL    HW112152   3.742   1.952   2.789
 3832SOL    HW212153   3.605   2.039   2.806
 3833SOL     OW12154   2.125   2.188   2.582
 3833SOL    HW112155   2.046   2.239   2.548
 3833SOL    HW212156   2.116   2.173   2.680
 3834SOL     OW12157   3.056   3.474   1.893
 3834SOL    HW112158   3.062   3.381   1.930
 3834SOL    HW212159   2.997   3.474   1.813
 3835SOL     OW12160   3.366   3.469   1.906
 3835SOL    HW112161   3.274   3.506   1.913
 3835SOL    HW212162   3.404   3.489   1.816
 3836SOL     OW12163   2.234   3.150   3.352
 3836SOL    HW112164   2.221   3.243   3.318
 3836SOL    HW212165   2.150   3.098   3.339
 3837SOL     OW12166   3.476   3.154   3.151
 3837SOL    HW112167   3.536   3.157   3.231
 3837SOL    HW212168   3.401   3.218   3.164
 3838SOL     OW12169   2.876   2.098   2.833
 3838SOL    HW112170   2.868   2.062   2.740
 3838SOL    HW212171   2.874   2.022   2.898
 3839SOL     OW12172   2.452   3.349   2.353
 3839SOL    HW112173   2.494   3.291   2.283
 3839SOL    HW212174   2.408   3.428   2.309
 3840SOL     OW12175   3.571   2.247   3.243
 3840SOL    HW112176   3.644   2.316   3.247
 3840SOL    HW212177   3.599   2.172   3.184
 3841SOL     OW12178   2.117   3.210   2.152
 3841SOL    HW112179   2.021   3.211   2.125
 3841SOL    HW212180   2.129   3.263   2.236
 3842SOL     OW12181   1.967   2.875   3.588
 3842SOL    HW112182   1.890   2.842   3.642
 3842SOL    HW212183   2.052   2.845   3.630
 3843SOL     OW12184   1.937   2.207   1.895
 3843SOL    HW112185   1.845   2.179   1.866
 3843SOL    HW212186   1.968   2.284   1.839
 3844SOL     OW12187   3.302   2.718   3.260
 3844SOL    HW112188   3.245   2.770   3.197
 3844SOL    HW212189   3.398   2.730   3.236
 3845SOL     OW12190   1.934   2.028   2.180
 3845SOL    HW112191   1.917   2.111   2.126
 3845SOL    HW212192   2.024   1.991   2.158
 3846SOL     OW12193   3.045   3.197   1.981
 3846SOL    HW112194   2.946   3.186   1.983
 3846SOL    HW212195   3.079   3.212   2.074
 3847SOL     OW12196   3.355   3.629   2.821
 3847SOL    HW112197   3.388   3.693   2.752
 3847SOL    HW212198   3.421   3.623   2.896
 3848SOL     OW12199   2.252   3.603   3.422
 3848SOL    HW112200   2.161   3.644   3.420
 3848SOL    HW212201   2.245   3.509   3.454
 3849SOL     OW12202   3.536   2.745   3.116
 3849SOL    HW112203   3.509   2.656   3.079
 3849SOL    HW212204   3.537   2.813   3.043
 3850SOL     OW12205   3.087   2.187   2.311
 3850SOL    HW112206   3.152   2.113   2.300
 3850SOL    HW212207   3.107   2.237   2.395
 3851SOL     OW12208   3.639   2.204   3.504
 3851SOL    HW112209   3.622   2.235   3.410
 3851SOL    HW212210   3.555   2.167   3.542
 3852SOL     OW12211   3.592   2.796   3.379
 3852SOL    HW112212   3.630   2.887   3.394
 3852SOL    HW212213   3.584   2.779   3.280
 3853SOL     OW12214   2.721   3.236   1.878
 3853SOL    HW112215   2.675   3.251   1.966
 3853SOL    HW212216   2.765   3.321   1.848
 3854SOL     OW12217   2.523   3.652   2.815
 3854SOL    HW112218   2.477   3.740   2.802
 3854SOL    HW212219   2.622   3.664   2.808
 3855SOL     OW12220   2.945   2.846   1.949
 3855SOL    HW112221   2.922   2.899   1.867
 3855SOL    HW212222   3.026   2.790   1.930
 3856SOL     OW12223   3.723   3.431   2.713
 3856SOL    HW112224   3.652   3.419   2.643
 3856SOL    HW212225   3.724   3.352   2.773
 3857SOL     OW12226   1.941   3.102   2.515
 3857SOL    HW112227   1.940   3.055   2.603
 3857SOL    HW212228   2.023   3.074   2.464
 3858SOL     OW12229   3.686   2.054   3.089
 3858SOL    HW112230   3.682   1.964   3.133
 3858SOL    HW212231   3.689   2.043   2.990
 3859SOL     OW12232   2.290   2.286   2.382
 3859SOL    HW112233   2.320   2.214   2.320
 3859SOL    HW212234   2.251   2.246   2.465
 3860SOL     OW12235   3.567   3.349   2.966
 3860SOL    HW112236   3.474   3.324   2.939
 3860SOL    HW212237   3.593   3.299   3.048
 3861SOL     OW12238   2.179   2.409   3.142
 3861SOL    HW112239   2.217   2.350   3.214
 3861SOL    HW212240   2.219   2.383   3.054
 3862SOL     OW12241   2.674   3.448   2.549
 3862SOL    HW112242   2.706   3.458   2.455
 3862SOL    HW212243   2.595   3.386   2.551
 3863SOL     OW12244   3.286   2.076   2.974
 3863SOL    HW112245   3.338   2.011   3.029
 3863SOL    HW212246   3.237   2.139   3.035
 3864SOL     OW12247   2.863   1.896   3.016
 3864SOL    HW112248   2.800   1.824   2.985
 3864SOL    HW212249   2.956   1.860   3.016
 3865SOL     OW12250   2.632   3.192   2.163
 3865SOL    HW112251   2.586   3.105   2.180
 3865SOL    HW212252   2.723   3.189   2.204
 3866SOL     OW12253   2.480   3.429   3.146
 3866SOL    HW112254   2.475   3.511   3.203
 3866SOL    HW212255   2.569   3.426   3.101
 3867SOL     OW12256   3.214   1.914   2.030
 3867SOL    HW112257   3.249   1.873   1.946
 3867SOL    HW212258   3.124   1.876   2.050
 3868SOL     OW12259   3.162   2.315   2.553
 3868SOL    HW112260   3.103   2.395   2.557
 3868SOL    HW212261   3.177   2.280   2.646
 3869SOL     OW12262   3.455   2.083   2.744
 3869SOL    HW112263   3.371   2.082   2.798
 3869SOL    HW212264   3.457   2.166   2.688
 3870SOL     OW12265   1.901   2.939   2.162
 3870SOL    HW112266   2.000   2.928   2.153
 3870SOL    HW212267   1.861   2.853   2.194
 3871SOL     OW12268   2.737   3.508   2.199
 3871SOL    HW112269   2.660   3.473   2.145
 3871SOL    HW212270   2.705   3.579   2.261
 3872SOL     OW12271   2.087   2.137   4.720
 3872SOL    HW112272   2.122   2.120   4.812
 3872SOL    HW212273   1.999   2.092   4.708
 3873SOL     OW12274   2.431   3.137   4.889
 3873SOL    HW112275   2.338   3.130   4.852
 3873SOL    HW212276   2.442   3.226   4.933
 3874SOL     OW12277   3.417   3.373   4.427
 3874SOL    HW112278   3.360   3.357   4.508
 3874SOL    HW212279   3.358   3.383   4.347
 3875SOL     OW12280   2.548   3.023   5.527
 3875SOL    HW112281   2.608   3.102   5.541
 3875SOL    HW212282   2.462   3.054   5.486
 3876SOL     OW12283   2.197   3.297   4.785
 3876SOL    HW112284   2.119   3.266   4.732
 3876SOL    HW212285   2.255   3.355   4.728
 3877SOL     OW12286   3.322   3.367   5.063
 3877SOL    HW112287   3.346   3.461   5.089
 3877SOL    HW212288   3.306   3.313   5.145
 3878SOL     OW12289   2.300   2.254   5.223
 3878SOL    HW112290   2.382   2.198   5.232
 3878SOL    HW212291   2.219   2.196   5.227
 3879SOL     OW12292   3.465   2.309   4.461
 3879SOL    HW112293   3.391   2.355   4.411
 3879SOL    HW212294   3.516   2.377   4.514
 3880SOL     OW12295   2.093   3.575   4.207
 3880SOL    HW112296   2.127   3.652   4.261
 3880SOL    HW212297   2.137   3.575   4.117
 3881SOL     OW12298   2.989   3.203   5.414
 3881SOL    HW112299   3.036   3.203   5.502
 3881SOL    HW212300   2.941   3.116   5.403
 3882SOL     OW12301   2.482   3.648   5.163
 3882SOL    HW112302   2.390   3.631   5.198
 3882SOL    HW212303   2.510   3.740   5.189
 3883SOL     OW12304   3.456   1.976   5.204
 3883SOL    HW112305   3.438   2.043   5.132
 3883SOL    HW212306   3.453   2.022   5.293
 3884SOL     OW12307   3.704   3.629   4.083
 3884SOL    HW112308   3.758   3.600   4.163
 3884SOL    HW212309   3.734   3.719   4.054
 3885SOL     OW12310   1.889   3.458   3.841
 3885SOL    HW112311   1.870   3.362   3.862
 3885SOL    HW212312   1.856   3.516   3.916
 3886SOL     OW12313   3.551   2.784   4.336
 3886SOL    HW112314   3.646   2.755   4.344
 3886SOL    HW212315   3.543   2.849   4.261
 3887SOL     OW12316   3.503   2.970   4.156
 3887SOL    HW112317   3.589   2.972   4.104
 3887SOL    HW212318   3.517   3.017   4.244
 3888SOL     OW12319   1.975   2.599   5.321
 3888SOL    HW112320   2.063   2.586   5.366
 3888SOL    HW212321   1.962   2.696   5.299
 3889SOL     OW12322   2.475   3.227   4.450
 3889SOL    HW112323   2.426   3.140   4.459
 3889SOL    HW212324   2.452   3.270   4.363
 3890SOL     OW12325   3.155   3.090   5.147
 3890SOL    HW112326   3.192   3.017   5.089
 3890SOL    HW212327   3.207   3.095   5.232
 3891SOL     OW12328   2.059   2.838   4.988
 3891SOL    HW112329   2.148   2.793   4.974
 3891SOL    HW212330   1.986   2.773   4.969
 3892SOL     OW12331   3.049   3.654   5.340
 3892SOL    HW112332   3.073   3.714   5.264
 3892SOL    HW212333   3.056   3.559   5.310
 3893SOL     OW12334   2.179   2.113   5.525
 3893SOL    HW112335   2.250   2.184   5.531
 3893SOL    HW212336   2.091   2.152   5.553
 3894SOL     OW12337   3.328   3.279   4.677
 3894SOL    HW112338   3.269   3.285   4.757
 3894SOL    HW212339   3.313   3.191   4.631
 3895SOL     OW12340   3.529   3.576   4.296
 3895SOL    HW112341   3.488   3.553   4.208
 3895SOL    HW212342   3.511   3.502   4.361
 3896SOL     OW12343   3.438   3.524   4.031
 3896SOL    HW112344   3.527   3.570   4.034
 3896SOL    HW212345   3.417   3.500   3.936
 3897SOL     OW12346   3.256   2.331   5.398
 3897SOL    HW112347   3.236   2.374   5.486
 3897SOL    HW212348   3.334   2.269   5.407
 3898SOL     OW12349   2.853   2.272   4.966
 3898SOL    HW112350   2.776   2.306   5.020
 3898SOL    HW212351   2.819   2.221   4.887
 3899SOL     OW12352   1.938   2.673   4.513
 3899SOL    HW112353   2.037   2.661   4.522
 3899SOL    HW212354   1.914   2.768   4.534
 3900SOL     OW12355   1.992   3.683   5.295
 3900SOL    HW112356   1.982   3.668   5.394
 3900SOL    HW212357   1.906   3.719   5.259
 3901SOL     OW12358   3.581   2.447   5.555
 3901SOL    HW112359   3.555   2.536   5.519
 3901SOL    HW212360   3.579   2.379   5.482
 3902SOL     OW12361   2.213   3.663   4.577
 3902SOL    HW112362   2.263   3.577   4.583
 3902SOL    HW212363   2.278   3.740   4.574
 3903SOL     OW12364   3.657   2.928   4.597
 3903SOL    HW112365   3.595   2.913   4.521
 3903SOL    HW212366   3.605   2.939   4.682
 3904SOL     OW12367   3.089   3.412   5.230
 3904SOL    HW112368   3.095   3.335   5.294
 3904SOL    HW212369   3.037   3.386   5.150
 3905SOL     OW12370   3.320   2.597   4.452
 3905SOL    HW112371   3.315   2.532   4.527
 3905SOL    HW212372   3.400   2.656   4.465
 3906SOL     OW12373   2.323   3.128   5.451
 3906SOL    HW112374   2.273   3.129   5.365
 3906SOL    HW212375   2.260   3.110   5.527
 3907SOL     OW12376   2.973   3.638   3.961
 3907SOL    HW112377   2.913   3.576   4.011
 3907SOL    HW212378   3.004   3.594   3.876
 3908SOL     OW12379   2.064   2.147   5.222
 3908SOL    HW112380   1.984   2.207   5.209
 3908SOL    HW212381   2.054   2.098   5.308
 3909SOL     OW12382   2.326   3.605   4.047
 3909SOL    HW112383   2.359   3.644   4.133
 3909SOL    HW212384   2.402   3.598   3.982
 3910SOL     OW12385   2.111   3.647   4.965
 3910SOL    HW112386   2.168   3.582   5.015
 3910SOL    HW212387   2.095   3.614   4.872
 3911SOL     OW12388   2.802   3.560   4.628
 3911SOL    HW112389   2.882   3.503   4.649
 3911SOL    HW212390   2.753   3.520   4.551
 3912SOL     OW12391   3.409   2.084   5.453
 3912SOL    HW112392   3.404   2.121   5.545
 3912SOL    HW212393   3.337   2.015   5.441
 3913SOL     OW12394   2.643   2.126   5.473
 3913SOL    HW112395   2.710   2.065   5.516
 3913SOL    HW212396   2.570   2.145   5.538
 3914SOL     OW12397   2.750   3.376   4.919
 3914SOL    HW112398   2.727   3.351   4.825
 3914SOL    HW212399   2.811   3.307   4.958
 3915SOL     OW12400   3.213   2.452   5.157
 3915SOL    HW112401   3.241   2.409   5.242
 3915SOL    HW212402   3.238   2.548   5.158
 3916SOL     OW12403   2.665   3.264   4.648
 3916SOL    HW112404   2.755   3.278   4.606
 3916SOL    HW212405   2.594   3.266   4.577
 3917SOL     OW12406   2.938   2.545   5.188
 3917SOL    HW112407   2.858   2.484   5.191
 3917SOL    HW212408   3.019   2.492   5.164
 3918SOL     OW12409   3.089   3.432   4.517
 3918SOL    HW112410   3.110   3.506   4.452
 3918SOL    HW212411   3.157   3.432   4.590
 3919SOL     OW12412   3.133   3.659   4.315
 3919SOL    HW112413   3.177   3.723   4.251
 3919SOL    HW212414   3.083   3.711   4.385
 3920SOL     OW12415   1.940   2.418   5.110
 3920SOL    HW112416   2.032   2.417   5.069
 3920SOL    HW212417   1.934   2.492   5.177
 3921SOL     OW12418   2.423   2.084   4.871
 3921SOL    HW112419   2.461   2.000   4.908
 3921SOL    HW212420   2.335   2.103   4.915
 3922SOL     OW12421   2.879   1.901   4.477
 3922SOL    HW112422   2.807   1.906   4.408
 3922SOL    HW212423   2.855   1.832   4.546
 3923SOL     OW12424   3.328   2.452   4.716
 3923SOL    HW112425   3.298   2.357   4.723
 3923SOL    HW212426   3.401   2.468   4.782
 3924SOL     OW12427   3.526   3.142   4.381
 3924SOL    HW112428   3.625   3.150   4.395
 3924SOL    HW212429   3.481   3.226   4.412
 3925SOL     OW12430   3.616   3.085   5.312
 3925SOL    HW112431   3.707   3.046   5.299
 3925SOL    HW212432   3.624   3.181   5.336
 3926SOL     OW12433   2.926   3.209   5.064
 3926SOL    HW112434   2.846   3.186   5.119
 3926SOL    HW212435   3.009   3.183   5.113
 3927SOL     OW12436   3.454   3.491   5.349
 3927SOL    HW112437   3.481   3.525   5.259
 3927SOL    HW212438   3.533   3.453   5.395
 3928SOL     OW12439   2.973   3.057   4.824
 3928SOL    HW112440   2.933   3.101   4.905
 3928SOL    HW212441   2.932   3.094   4.741
 3929SOL     OW12442   3.500   2.961   4.803
 3929SOL    HW112443   3.505   3.042   4.862
 3929SOL    HW212444   3.414   2.963   4.752
 3930SOL     OW12445   2.777   1.951   5.126
 3930SOL    HW112446   2.802   1.931   5.031
 3930SOL    HW212447   2.849   2.007   5.168
 3931SOL     OW12448   2.272   2.675   4.975
 3931SOL    HW112449   2.358   2.687   5.025
 3931SOL    HW212450   2.230   2.588   5.002
 3932SOL     OW12451   3.136   2.248   4.986
 3932SOL    HW112452   3.157   2.322   5.050
 3932SOL    HW212453   3.047   2.265   4.943
 3933SOL     OW12454   1.926   3.426   5.055
 3933SOL    HW112455   1.880   3.508   5.021
 3933SOL    HW212456   2.024   3.445   5.064
 3934SOL     OW12457   3.134   3.307   4.866
 3934SOL    HW112458   3.181   3.320   4.953
 3934SOL    HW212459   3.068   3.233   4.875
 3935SOL     OW12460   2.216   3.372   5.053
 3935SOL    HW112461   2.195   3.328   4.966
 3935SOL    HW212462   2.313   3.398   5.056
 3936SOL     OW12463   2.264   2.613   5.322
 3936SOL    HW112464   2.332   2.668   5.275
 3936SOL    HW212465   2.304   2.525   5.349
 3937SOL     OW12466   3.449   2.641   5.394
 3937SOL    HW112467   3.357   2.679   5.389
 3937SOL    HW212468   3.509   2.688   5.329
 3938SOL     OW12469   2.875   1.967   5.494
 3938SOL    HW112470   2.881   2.052   5.442
 3938SOL    HW212471   2.907   1.891   5.437
 3939SOL     OW12472   2.366   1.912   5.464
 3939SOL    HW112473   2.324   1.855   5.394
 3939SOL    HW212474   2.300   1.981   5.496
 3940SOL     OW12475   3.222   2.724   4.769
 3940SOL    HW112476   3.147   2.724   4.703
 3940SOL    HW212477   3.259   2.632   4.778
 3941SOL     OW12478   2.169   2.075   4.955
 3941SOL    HW112479   2.146   2.112   5.045
 3941SOL    HW212480   2.139   1.980   4.949
 3942SOL     OW12481   1.899   3.172   5.006
 3942SOL    HW112482   1.952   3.123   5.074
 3942SOL    HW212483   1.921   3.270   5.011
 3943SOL     OW12484   3.590   2.797   5.578
 3943SOL    HW112485   3.544   2.790   5.489
 3943SOL    HW212486   3.528   2.841   5.644
 3944SOL     OW12487   3.484   2.229   4.098
 3944SOL    HW112488   3.486   2.153   4.162
 3944SOL    HW212489   3.436   2.306   4.138
 3945SOL     OW12490   2.842   3.435   5.424
 3945SOL    HW112491   2.822   3.479   5.336
 3945SOL    HW212492   2.881   3.344   5.408
 3946SOL     OW12493   3.721   3.380   5.329
 3946SOL    HW112494   3.735   3.407   5.234
 3946SOL    HW212495   3.804   3.402   5.382
 3947SOL     OW12496   2.212   2.760   5.528
 3947SOL    HW112497   2.288   2.804   5.576
 3947SOL    HW212498   2.247   2.713   5.446
 3948SOL     OW12499   2.930   3.195   4.573
 3948SOL    HW112500   2.937   3.111   4.518
 3948SOL    HW212501   2.992   3.264   4.537
 3949SOL     OW12502   2.181   2.672   4.673
 3949SOL    HW112503   2.274   2.708   4.678
 3949SOL    HW212504   2.175   2.587   4.725
 3950SOL     OW12505   2.201   2.371   4.730
 3950SOL    HW112506   2.149   2.288   4.713
 3950SOL    HW212507   2.278   2.376   4.666
 3951SOL     OW12508   3.000   2.242   5.402
 3951SOL    HW112509   2.955   2.305   5.466
 3951SOL    HW212510   3.093   2.273   5.385
 3952SOL     OW12511   3.022   2.069   5.201
 3952SOL    HW112512   3.022   2.133   5.278
 3952SOL    HW212513   3.050   2.117   5.118
 3953SOL     OW12514   1.950   3.663   4.651
 3953SOL    HW112515   1.908   3.577   4.624
 3953SOL    HW212516   2.044   3.666   4.617
 3954SOL     OW12517   2.366   3.430   4.634
 3954SOL    HW112518   2.432   3.504   4.643
 3954SOL    HW212519   2.410   3.351   4.592
 3955SOL     OW12520   1.902   2.406   4.838
 3955SOL    HW112521   1.987   2.373   4.797
 3955SOL    HW212522   1.915   2.421   4.936
 3956SOL     OW12523   2.051   2.382   5.446
 3956SOL    HW112524   2.110   2.342   5.376
 3956SOL    HW212525   1.993   2.453   5.405
 3957SOL     OW12526   3.231   2.812   5.384
 3957SOL    HW112527   3.270   2.901   5.404
 3957SOL    HW212528   3.241   2.792   5.287
 3958SOL     OW12529   3.519   2.466   4.930
 3958SOL    HW112530   3.481   2.397   4.992
 3958SOL    HW212531   3.601   2.430   4.886
 3959SOL     OW12532   2.114   3.426   5.468
 3959SOL    HW112533   2.084   3.483   5.544
 3959SOL    HW212534   2.107   3.329   5.494
 3960SOL     OW12535   2.792   3.540   5.189
 3960SOL    HW112536   2.768   3.522   5.094
 3960SOL    HW212537   2.822   3.634   5.199
 3961SOL     OW12538   2.021   2.999   5.190
 3961SOL    HW112539   2.043   2.938   5.266
 3961SOL    HW212540   2.031   2.950   5.104
 3962SOL     OW12541   3.209   2.921   4.958
 3962SOL    HW112542   3.233   2.858   4.884
 3962SOL    HW212543   3.119   2.961   4.940
 3963SOL     OW12544   3.621   3.609   4.878
 3963SOL    HW112545   3.682   3.639   4.805
 3963SOL    HW212546   3.583   3.520   4.856
 3964SOL     OW12547   3.114   3.593   4.852
 3964SOL    HW112548   3.198   3.598   4.798
 3964SOL    HW212549   3.091   3.497   4.870
 3965SOL     OW12550   1.945   3.120   4.746
 3965SOL    HW112551   1.940   3.119   4.846
 3965SOL    HW212552   1.862   3.079   4.708
 3966SOL     OW12553   2.550   3.524   5.440
 3966SOL    HW112554   2.494   3.605   5.449
 3966SOL    HW212555   2.602   3.528   5.354
 3967SOL     OW12556   3.588   1.997   4.247
 3967SOL    HW112557   3.661   1.980   4.180
 3967SOL    HW212558   3.557   1.910   4.285
 3968SOL     OW12559   1.992   3.656   5.575
 3968SOL    HW112560   1.951   3.582   5.628
 3968SOL    HW212561   2.056   3.707   5.633
 3969SOL     OW12562   2.692   3.135   5.146
 3969SOL    HW112563   2.687   3.168   5.241
 3969SOL    HW212564   2.606   3.154   5.100
 3970SOL     OW12565   3.512   3.582   5.118
 3970SOL    HW112566   3.565   3.592   5.034
 3970SOL    HW212567   3.485   3.672   5.152
 3971SOL     OW12568   3.703   2.037   4.687
 3971SOL    HW112569   3.742   1.952   4.651
 3971SOL    HW212570   3.605   2.039   4.668
 3972SOL     OW12571   3.056   3.474   3.755
 3972SOL    HW112572   3.062   3.381   3.792
 3972SOL    HW212573   2.997   3.474   3.675
 3973SOL     OW12574   3.366   3.469   3.768
 3973SOL    HW112575   3.274   3.506   3.775
 3973SOL    HW212576   3.404   3.489   3.678
 3974SOL     OW12577   2.234   3.150   5.214
 3974SOL    HW112578   2.221   3.243   5.180
 3974SOL    HW212579   2.150   3.098   5.201
 3975SOL     OW12580   3.476   3.154   5.013
 3975SOL    HW112581   3.536   3.157   5.093
 3975SOL    HW212582   3.401   3.218   5.026
 3976SOL     OW12583   2.876   2.098   4.695
 3976SOL    HW112584   2.868   2.062   4.602
 3976SOL    HW212585   2.874   2.022   4.760
 3977SOL     OW12586   3.571   2.247   5.105
 3977SOL    HW112587   3.644   2.316   5.109
 3977SOL    HW212588   3.599   2.172   5.046
 3978SOL     OW12589   1.967   2.875   5.450
 3978SOL    HW112590   1.890   2.842   5.504
 3978SOL    HW212591   2.052   2.845   5.492
 3979SOL     OW12592   2.534   2.065   5.213
 3979SOL    HW112593   2.624   2.049   5.173
 3979SOL    HW212594   2.542   2.070   5.312
 3980SOL     OW12595   3.302   2.718   5.122
 3980SOL    HW112596   3.245   2.770   5.059
 3980SOL    HW212597   3.398   2.730   5.098
 3981SOL     OW12598   1.934   2.028   4.042
 3981SOL    HW112599   1.917   2.111   3.988
 3981SOL    HW212600   2.024   1.991   4.020
 3982SOL     OW12601   3.355   3.629   4.683
 3982SOL    HW112602   3.388   3.693   4.614
 3982SOL    HW212603   3.421   3.623   4.758
 3983SOL     OW12604   3.312   3.082   5.357
 3983SOL    HW112605   3.303   3.072   5.456
 3983SOL    HW212606   3.408   3.075   5.331
 3984SOL     OW12607   2.252   3.603   5.284
 3984SOL    HW112608   2.161   3.644   5.282
 3984SOL    HW212609   2.245   3.509   5.316
 3985SOL     OW12610   3.536   2.745   4.978
 3985SOL    HW112611   3.509   2.656   4.941
 3985SOL    HW212612   3.537   2.813   4.905
 3986SOL     OW12613   3.639   2.204   5.366
 3986SOL    HW112614   3.622   2.235   5.272
 3986SOL    HW212615   3.555   2.167   5.404
 3987SOL     OW12616   3.592   2.796   5.241
 3987SOL    HW112617   3.630   2.887   5.256
 3987SOL    HW212618   3.584   2.779   5.142
 3988SOL     OW12619   2.523   3.652   4.677
 3988SOL    HW112620   2.477   3.740   4.664
 3988SOL    HW212621   2.622   3.664   4.670
 3989SOL     OW12622   3.723   3.431   4.575
 3989SOL    HW112623   3.652   3.419   4.505
 3989SOL    HW212624   3.724   3.352   4.635
 3990SOL     OW12625   2.083   3.176   5.568
 3990SOL    HW112626   2.018   3.103   5.547
 3990SOL    HW212627   2.087   3.190   5.666
 3991SOL     OW12628   1.941   3.102   4.377
 3991SOL    HW112629   1.940   3.055   4.465
 3991SOL    HW212630   2.023   3.074   4.326
 3992SOL     OW12631   2.534   3.253   5.348
 3992SOL    HW112632   2.456   3.203   5.386
 3992SOL    HW212633   2.531   3.348   5.379
 3993SOL     OW12634   3.686   2.054   4.951
 3993SOL    HW112635   3.682   1.964   4.995
 3993SOL    HW212636   3.689   2.043   4.852
 3994SOL     OW12637   2.290   2.286   4.244
 3994SOL    HW112638   2.320   2.214   4.182
 3994SOL    HW212639   2.251   2.246   4.327
 3995SOL     OW12640   3.567   3.349   4.828
 3995SOL    HW112641   3.474   3.324   4.801
 3995SOL    HW212642   3.593   3.299   4.910
 3996SOL     OW12643   2.179   2.409   5.004
 3996SOL    HW112644   2.217   2.350   5.076
 3996SOL    HW212645   2.219   2.383   4.916
 3997SOL     OW12646   2.674   3.448   4.411
 3997SOL    HW112647   2.706   3.458   4.317
 3997SOL    HW212648   2.595   3.386   4.413
 3998SOL     OW12649   3.286   2.076   4.836
 3998SOL    HW112650   3.338   2.011   4.891
 3998SOL    HW212651   3.237   2.139   4.897
 3999SOL     OW12652   2.863   1.896   4.878
 3999SOL    HW112653   2.800   1.824   4.847
 3999SOL    HW212654   2.956   1.860   4.878
 4000SOL     OW12655   2.480   3.429   5.008
 4000SOL    HW112656   2.475   3.511   5.065
 4000SOL    HW212657   2.569   3.426   4.963
 4001SOL     OW12658   3.455   2.083   4.606
 4001SOL    HW112659   3.371   2.082   4.660
 4001SOL    HW212660   3.457   2.166   4.550
 4002SOL     OW12661   2.092   2.490   5.699
 4002SOL    HW112662   1.999   2.488   5.736
 4002SOL    HW212663   2.093   2.451   5.607
 4003SOL     OW12664   2.087   2.137   6.582
 4003SOL    HW112665   2.122   2.120   6.674
 4003SOL    HW212666   1.999   2.092   6.570
 4004SOL     OW12667   1.881   2.230   6.233
 4004SOL    HW112668   1.799   2.273   6.272
 4004SOL    HW212669   1.853   2.157   6.170
 4005SOL     OW12670   2.431   3.137   6.751
 4005SOL    HW112671   2.338   3.130   6.714
 4005SOL    HW212672   2.442   3.226   6.795
 4006SOL     OW12673   3.417   3.373   6.289
 4006SOL    HW112674   3.360   3.357   6.370
 4006SOL    HW212675   3.358   3.383   6.209
 4007SOL     OW12676   2.997   2.565   6.303
 4007SOL    HW112677   3.054   2.643   6.278
 4007SOL    HW212678   2.937   2.591   6.379
 4008SOL     OW12679   3.617   2.469   5.817
 4008SOL    HW112680   3.605   2.456   5.718
 4008SOL    HW212681   3.587   2.388   5.866
 4009SOL     OW12682   2.548   3.023   7.389
 4009SOL    HW112683   2.608   3.102   7.403
 4009SOL    HW212684   2.462   3.054   7.348
 4010SOL     OW12685   2.197   3.297   6.647
 4010SOL    HW112686   2.119   3.266   6.594
 4010SOL    HW212687   2.255   3.355   6.590
 4011SOL     OW12688   3.322   3.367   6.925
 4011SOL    HW112689   3.346   3.461   6.951
 4011SOL    HW212690   3.306   3.313   7.007
 4012SOL     OW12691   2.300   2.254   7.085
 4012SOL    HW112692   2.382   2.198   7.094
 4012SOL    HW212693   2.219   2.196   7.089
 4013SOL     OW12694   3.465   2.309   6.323
 4013SOL    HW112695   3.391   2.355   6.273
 4013SOL    HW212696   3.516   2.377   6.376
 4014SOL     OW12697   2.093   3.575   6.069
 4014SOL    HW112698   2.127   3.652   6.123
 4014SOL    HW212699   2.137   3.575   5.979
 4015SOL     OW12700   2.989   3.203   7.276
 4015SOL    HW112701   3.036   3.203   7.364
 4015SOL    HW212702   2.941   3.116   7.265
 4016SOL     OW12703   2.092   3.296   6.124
 4016SOL    HW112704   2.066   3.392   6.124
 4016SOL    HW212705   2.021   3.242   6.169
 4017SOL     OW12706   2.102   2.953   6.472
 4017SOL    HW112707   2.116   2.869   6.524
 4017SOL    HW212708   2.047   3.017   6.527
 4018SOL     OW12709   2.482   3.648   7.025
 4018SOL    HW112710   2.390   3.631   7.060
 4018SOL    HW212711   2.510   3.740   7.051
 4019SOL     OW12712   3.456   1.976   7.066
 4019SOL    HW112713   3.438   2.043   6.994
 4019SOL    HW212714   3.453   2.022   7.155
 4020SOL     OW12715   1.984   2.505   6.149
 4020SOL    HW112716   1.939   2.417   6.166
 4020SOL    HW212717   1.983   2.559   6.233
 4021SOL     OW12718   3.704   3.629   5.945
 4021SOL    HW112719   3.758   3.600   6.025
 4021SOL    HW212720   3.734   3.719   5.916
 4022SOL     OW12721   1.889   3.458   5.703
 4022SOL    HW112722   1.870   3.362   5.724
 4022SOL    HW212723   1.856   3.516   5.778
 4023SOL     OW12724   3.551   2.784   6.198
 4023SOL    HW112725   3.646   2.755   6.206
 4023SOL    HW212726   3.543   2.849   6.123
 4024SOL     OW12727   3.503   2.970   6.018
 4024SOL    HW112728   3.589   2.972   5.966
 4024SOL    HW212729   3.517   3.017   6.106
 4025SOL     OW12730   1.975   2.599   7.183
 4025SOL    HW112731   2.063   2.586   7.228
 4025SOL    HW212732   1.962   2.696   7.161
 4026SOL     OW12733   2.475   3.227   6.312
 4026SOL    HW112734   2.426   3.140   6.321
 4026SOL    HW212735   2.452   3.270   6.225
 4027SOL     OW12736   3.155   3.090   7.009
 4027SOL    HW112737   3.192   3.017   6.951
 4027SOL    HW212738   3.207   3.095   7.094
 4028SOL     OW12739   2.671   1.866   6.088
 4028SOL    HW112740   2.711   1.957   6.079
 4028SOL    HW212741   2.571   1.874   6.094
 4029SOL     OW12742   2.059   2.838   6.850
 4029SOL    HW112743   2.148   2.793   6.836
 4029SOL    HW212744   1.986   2.773   6.831
 4030SOL     OW12745   3.387   2.861   5.776
 4030SOL    HW112746   3.324   2.785   5.789
 4030SOL    HW212747   3.435   2.879   5.862
 4031SOL     OW12748   3.049   3.654   7.202
 4031SOL    HW112749   3.073   3.714   7.126
 4031SOL    HW212750   3.056   3.559   7.172
 4032SOL     OW12751   2.179   2.113   7.387
 4032SOL    HW112752   2.250   2.184   7.393
 4032SOL    HW212753   2.091   2.152   7.415
 4033SOL     OW12754   3.328   3.279   6.539
 4033SOL    HW112755   3.269   3.285   6.619
 4033SOL    HW212756   3.313   3.191   6.493
 4034SOL     OW12757   3.529   3.576   6.158
 4034SOL    HW112758   3.488   3.553   6.070
 4034SOL    HW212759   3.511   3.502   6.223
 4035SOL     OW12760   3.143   2.207   6.530
 4035SOL    HW112761   3.057   2.157   6.517
 4035SOL    HW212762   3.205   2.153   6.586
 4036SOL     OW12763   3.438   3.524   5.893
 4036SOL    HW112764   3.527   3.570   5.896
 4036SOL    HW212765   3.417   3.500   5.798
 4037SOL     OW12766   3.256   2.331   7.260
 4037SOL    HW112767   3.236   2.374   7.348
 4037SOL    HW212768   3.334   2.269   7.269
 4038SOL     OW12769   2.853   2.272   6.828
 4038SOL    HW112770   2.776   2.306   6.882
 4038SOL    HW212771   2.819   2.221   6.749
 4039SOL     OW12772   1.938   2.673   6.375
 4039SOL    HW112773   2.037   2.661   6.384
 4039SOL    HW212774   1.914   2.768   6.396
 4040SOL     OW12775   1.992   3.683   7.157
 4040SOL    HW112776   1.982   3.668   7.256
 4040SOL    HW212777   1.906   3.719   7.121
 4041SOL     OW12778   2.727   2.210   5.781
 4041SOL    HW112779   2.786   2.273   5.732
 4041SOL    HW212780   2.746   2.116   5.752
 4042SOL     OW12781   3.581   2.447   7.417
 4042SOL    HW112782   3.555   2.536   7.381
 4042SOL    HW212783   3.579   2.379   7.344
 4043SOL     OW12784   3.224   3.006   6.131
 4043SOL    HW112785   3.307   2.977   6.083
 4043SOL    HW212786   3.175   3.073   6.075
 4044SOL     OW12787   2.412   2.058   6.471
 4044SOL    HW112788   2.407   2.053   6.571
 4044SOL    HW212789   2.414   2.154   6.442
 4045SOL     OW12790   2.870   3.318   6.063
 4045SOL    HW112791   2.824   3.390   6.011
 4045SOL    HW212792   2.866   3.338   6.161
 4046SOL     OW12793   2.213   3.663   6.439
 4046SOL    HW112794   2.263   3.577   6.445
 4046SOL    HW212795   2.278   3.740   6.436
 4047SOL     OW12796   3.657   2.928   6.459
 4047SOL    HW112797   3.595   2.913   6.383
 4047SOL    HW212798   3.605   2.939   6.544
 4048SOL     OW12799   3.089   3.412   7.092
 4048SOL    HW112800   3.095   3.335   7.156
 4048SOL    HW212801   3.037   3.386   7.012
 4049SOL     OW12802   2.183   2.805   5.828
 4049SOL    HW112803   2.265   2.844   5.786
 4049SOL    HW212804   2.156   2.723   5.779
 4050SOL     OW12805   3.320   2.597   6.314
 4050SOL    HW112806   3.315   2.532   6.389
 4050SOL    HW212807   3.400   2.656   6.327
 4051SOL     OW12808   2.323   3.128   7.313
 4051SOL    HW112809   2.273   3.129   7.227
 4051SOL    HW212810   2.260   3.110   7.389
 4052SOL     OW12811   2.973   3.638   5.823
 4052SOL    HW112812   2.913   3.576   5.873
 4052SOL    HW212813   3.004   3.594   5.738
 4053SOL     OW12814   2.064   2.147   7.084
 4053SOL    HW112815   1.984   2.207   7.071
 4053SOL    HW212816   2.054   2.098   7.170
 4054SOL     OW12817   3.494   3.239   5.667
 4054SOL    HW112818   3.462   3.333   5.657
 4054SOL    HW212819   3.418   3.176   5.655
 4055SOL     OW12820   2.326   3.605   5.909
 4055SOL    HW112821   2.359   3.644   5.995
 4055SOL    HW212822   2.402   3.598   5.844
 4056SOL     OW12823   3.262   1.969   6.012
 4056SOL    HW112824   3.238   1.932   5.922
 4056SOL    HW212825   3.361   1.985   6.016
 4057SOL     OW12826   2.111   3.647   6.827
 4057SOL    HW112827   2.168   3.582   6.877
 4057SOL    HW212828   2.095   3.614   6.734
 4058SOL     OW12829   2.802   3.560   6.490
 4058SOL    HW112830   2.882   3.503   6.511
 4058SOL    HW212831   2.753   3.520   6.413
 4059SOL     OW12832   2.244   2.562   6.066
 4059SOL    HW112833   2.289   2.472   6.063
 4059SOL    HW212834   2.150   2.551   6.099
 4060SOL     OW12835   3.409   2.084   7.315
 4060SOL    HW112836   3.404   2.121   7.407
 4060SOL    HW212837   3.337   2.015   7.303
 4061SOL     OW12838   2.476   1.984   5.703
 4061SOL    HW112839   2.574   1.962   5.710
 4061SOL    HW212840   2.445   1.967   5.610
 4062SOL     OW12841   2.643   2.126   7.335
 4062SOL    HW112842   2.710   2.065   7.378
 4062SOL    HW212843   2.570   2.145   7.400
 4063SOL     OW12844   2.750   3.376   6.781
 4063SOL    HW112845   2.727   3.351   6.687
 4063SOL    HW212846   2.811   3.307   6.820
 4064SOL     OW12847   3.213   2.452   7.019
 4064SOL    HW112848   3.241   2.409   7.104
 4064SOL    HW212849   3.238   2.548   7.020
 4065SOL     OW12850   2.665   3.264   6.510
 4065SOL    HW112851   2.755   3.278   6.468
 4065SOL    HW212852   2.594   3.266   6.439
 4066SOL     OW12853   2.401   1.926   6.098
 4066SOL    HW112854   2.320   1.927   6.156
 4066SOL    HW212855   2.404   2.009   6.043
 4067SOL     OW12856   3.296   3.050   5.627
 4067SOL    HW112857   3.328   2.974   5.684
 4067SOL    HW212858   3.204   3.077   5.657
 4068SOL     OW12859   2.159   1.897   5.757
 4068SOL    HW112860   2.208   1.981   5.736
 4068SOL    HW212861   2.221   1.832   5.802
 4069SOL     OW12862   2.797   2.098   6.066
 4069SOL    HW112863   2.749   2.139   5.988
 4069SOL    HW212864   2.896   2.096   6.047
 4070SOL     OW12865   3.089   3.432   6.379
 4070SOL    HW112866   3.110   3.506   6.314
 4070SOL    HW212867   3.157   3.432   6.452
 4071SOL     OW12868   2.321   3.014   6.327
 4071SOL    HW112869   2.250   2.987   6.392
 4071SOL    HW212870   2.295   2.986   6.234
 4072SOL     OW12871   3.133   3.659   6.177
 4072SOL    HW112872   3.177   3.723   6.113
 4072SOL    HW212873   3.083   3.711   6.247
 4073SOL     OW12874   1.940   2.418   6.972
 4073SOL    HW112875   2.032   2.417   6.931
 4073SOL    HW212876   1.934   2.492   7.039
 4074SOL     OW12877   2.423   2.084   6.733
 4074SOL    HW112878   2.461   2.000   6.770
 4074SOL    HW212879   2.335   2.103   6.777
 4075SOL     OW12880   2.879   1.901   6.339
 4075SOL    HW112881   2.807   1.906   6.270
 4075SOL    HW212882   2.855   1.832   6.408
 4076SOL     OW12883   3.291   3.035   6.453
 4076SOL    HW112884   3.236   2.951   6.446
 4076SOL    HW212885   3.317   3.064   6.361
 4077SOL     OW12886   3.328   2.452   6.578
 4077SOL    HW112887   3.298   2.357   6.585
 4077SOL    HW212888   3.401   2.468   6.644
 4078SOL     OW12889   3.719   2.695   5.963
 4078SOL    HW112890   3.761   2.631   6.027
 4078SOL    HW212891   3.681   2.644   5.885
 4079SOL     OW12892   2.350   3.247   5.760
 4079SOL    HW112893   2.263   3.232   5.807
 4079SOL    HW212894   2.333   3.273   5.665
 4080SOL     OW12895   3.526   3.142   6.243
 4080SOL    HW112896   3.625   3.150   6.257
 4080SOL    HW212897   3.481   3.226   6.274
 4081SOL     OW12898   3.252   2.437   5.664
 4081SOL    HW112899   3.198   2.416   5.745
 4081SOL    HW212900   3.343   2.396   5.673
 4082SOL     OW12901   2.389   2.118   5.914
 4082SOL    HW112902   2.416   2.059   5.839
 4082SOL    HW212903   2.389   2.213   5.883
 4083SOL     OW12904   3.616   3.085   7.174
 4083SOL    HW112905   3.707   3.046   7.161
 4083SOL    HW212906   3.624   3.181   7.198
 4084SOL     OW12907   2.926   3.209   6.926
 4084SOL    HW112908   2.846   3.186   6.981
 4084SOL    HW212909   3.009   3.183   6.975
 4085SOL     OW12910   3.454   3.491   7.211
 4085SOL    HW112911   3.481   3.525   7.121
 4085SOL    HW212912   3.533   3.453   7.257
 4086SOL     OW12913   2.973   3.057   6.686
 4086SOL    HW112914   2.933   3.101   6.767
 4086SOL    HW212915   2.932   3.094   6.603
 4087SOL     OW12916   3.500   2.961   6.665
 4087SOL    HW112917   3.505   3.042   6.724
 4087SOL    HW212918   3.414   2.963   6.614
 4088SOL     OW12919   2.777   1.951   6.988
 4088SOL    HW112920   2.802   1.931   6.893
 4088SOL    HW212921   2.849   2.007   7.030
 4089SOL     OW12922   2.842   2.978   7.305
 4089SOL    HW112923   2.743   2.984   7.315
 4089SOL    HW212924   2.865   2.898   7.249
 4090SOL     OW12925   2.272   2.675   6.837
 4090SOL    HW112926   2.358   2.687   6.887
 4090SOL    HW212927   2.230   2.588   6.864
 4091SOL     OW12928   3.136   2.248   6.848
 4091SOL    HW112929   3.157   2.322   6.912
 4091SOL    HW212930   3.047   2.265   6.805
 4092SOL     OW12931   1.926   3.426   6.917
 4092SOL    HW112932   1.880   3.508   6.883
 4092SOL    HW212933   2.024   3.445   6.926
 4093SOL     OW12934   2.229   2.962   6.087
 4093SOL    HW112935   2.222   3.045   6.031
 4093SOL    HW212936   2.233   2.882   6.027
 4094SOL     OW12937   3.114   3.210   5.974
 4094SOL    HW112938   3.164   3.287   6.014
 4094SOL    HW212939   3.019   3.212   6.006
 4095SOL     OW12940   3.134   3.307   6.728
 4095SOL    HW112941   3.181   3.320   6.815
 4095SOL    HW212942   3.068   3.233   6.737
 4096SOL     OW12943   3.444   2.501   6.058
 4096SOL    HW112944   3.413   2.562   6.131
 4096SOL    HW212945   3.494   2.553   5.989
 4097SOL     OW12946   2.216   3.372   6.915
 4097SOL    HW112947   2.195   3.328   6.828
 4097SOL    HW212948   2.313   3.398   6.918
 4098SOL     OW12949   2.264   2.613   7.184
 4098SOL    HW112950   2.332   2.668   7.137
 4098SOL    HW212951   2.304   2.525   7.211
 4099SOL     OW12952   3.449   2.641   7.256
 4099SOL    HW112953   3.357   2.679   7.251
 4099SOL    HW212954   3.509   2.688   7.191
 4100SOL     OW12955   2.875   1.967   7.356
 4100SOL    HW112956   2.881   2.052   7.304
 4100SOL    HW212957   2.907   1.891   7.299
 4101SOL     OW12958   2.366   1.912   7.326
 4101SOL    HW112959   2.324   1.855   7.256
 4101SOL    HW212960   2.300   1.981   7.358
 4102SOL     OW12961   3.222   2.724   6.631
 4102SOL    HW112962   3.147   2.724   6.565
 4102SOL    HW212963   3.259   2.632   6.640
 4103SOL     OW12964   3.071   2.387   5.861
 4103SOL    HW112965   3.084   2.303   5.915
 4103SOL    HW212966   3.042   2.461   5.921
 4104SOL     OW12967   2.169   2.075   6.817
 4104SOL    HW112968   2.146   2.112   6.907
 4104SOL    HW212969   2.139   1.980   6.811
 4105SOL     OW12970   1.899   3.172   6.868
 4105SOL    HW112971   1.952   3.123   6.936
 4105SOL    HW212972   1.921   3.270   6.873
 4106SOL     OW12973   3.590   2.797   7.440
 4106SOL    HW112974   3.544   2.790   7.351
 4106SOL    HW212975   3.528   2.841   7.506
 4107SOL     OW12976   2.169   1.925   6.204
 4107SOL    HW112977   2.158   2.019   6.237
 4107SOL    HW212978   2.164   1.862   6.281
 4108SOL     OW12979   3.484   2.229   5.960
 4108SOL    HW112980   3.486   2.153   6.024
 4108SOL    HW212981   3.436   2.306   6.000
 4109SOL     OW12982   2.842   3.435   7.286
 4109SOL    HW112983   2.822   3.479   7.198
 4109SOL    HW212984   2.881   3.344   7.270
 4110SOL     OW12985   3.721   3.380   7.191
 4110SOL    HW112986   3.735   3.407   7.096
 4110SOL    HW212987   3.804   3.402   7.244
 4111SOL     OW12988   2.212   2.760   7.390
 4111SOL    HW112989   2.288   2.804   7.438
 4111SOL    HW212990   2.247   2.713   7.308
 4112SOL     OW12991   3.402   2.136   5.711
 4112SOL    HW112992   3.341   2.061   5.734
 4112SOL    HW212993   3.424   2.188   5.794
 4113SOL     OW12994   3.165   2.700   5.628
 4113SOL    HW112995   3.199   2.607   5.643
 4113SOL    HW212996   3.183   2.727   5.533
 4114SOL     OW12997   2.930   3.195   6.435
 4114SOL    HW112998   2.937   3.111   6.380
 4114SOL    HW212999   2.992   3.264   6.399
 4115SOL     OW13000   2.181   2.672   6.535
 4115SOL    HW113001   2.274   2.708   6.540
 4115SOL    HW213002   2.175   2.587   6.587
 4116SOL     OW13003   2.201   2.371   6.592
 4116SOL    HW113004   2.149   2.288   6.575
 4116SOL    HW213005   2.278   2.376   6.528
 4117SOL     OW13006   3.000   2.242   7.264
 4117SOL    HW113007   2.955   2.305   7.328
 4117SOL    HW213008   3.093   2.273   7.247
 4118SOL     OW13009   3.022   2.069   7.063
 4118SOL    HW113010   3.022   2.133   7.140
 4118SOL    HW213011   3.050   2.117   6.980
 4119SOL     OW13012   1.870   3.188   5.786
 4119SOL    HW113013   1.777   3.209   5.755
 4119SOL    HW213014   1.880   3.089   5.799
 4120SOL     OW13015   1.950   3.663   6.513
 4120SOL    HW113016   1.908   3.577   6.486
 4120SOL    HW213017   2.044   3.666   6.479
 4121SOL     OW13018   2.366   3.430   6.496
 4121SOL    HW113019   2.432   3.504   6.505
 4121SOL    HW213020   2.410   3.351   6.454
 4122SOL     OW13021   1.902   2.406   6.700
 4122SOL    HW113022   1.987   2.373   6.659
 4122SOL    HW213023   1.915   2.421   6.798
 4123SOL     OW13024   2.051   2.382   7.308
 4123SOL    HW113025   2.110   2.342   7.238
 4123SOL    HW213026   1.993   2.453   7.267
 4124SOL     OW13027   3.231   2.812   7.246
 4124SOL    HW113028   3.270   2.901   7.266
 4124SOL    HW213029   3.241   2.792   7.149
 4125SOL     OW13030   3.519   2.466   6.792
 4125SOL    HW113031   3.481   2.397   6.854
 4125SOL    HW213032   3.601   2.430   6.748
 4126SOL     OW13033   2.114   3.426   7.330
 4126SOL    HW113034   2.084   3.483   7.406
 4126SOL    HW213035   2.107   3.329   7.356
 4127SOL     OW13036   2.792   3.540   7.051
 4127SOL    HW113037   2.768   3.522   6.956
 4127SOL    HW213038   2.822   3.634   7.061
 4128SOL     OW13039   2.021   2.999   7.052
 4128SOL    HW113040   2.043   2.938   7.128
 4128SOL    HW213041   2.031   2.950   6.966
 4129SOL     OW13042   3.209   2.921   6.820
 4129SOL    HW113043   3.233   2.858   6.746
 4129SOL    HW213044   3.119   2.961   6.802
 4130SOL     OW13045   3.164   2.717   5.895
 4130SOL    HW113046   3.078   2.686   5.937
 4130SOL    HW213047   3.160   2.703   5.796
 4131SOL     OW13048   3.621   3.609   6.740
 4131SOL    HW113049   3.682   3.639   6.667
 4131SOL    HW213050   3.583   3.520   6.718
 4132SOL     OW13051   3.114   3.593   6.714
 4132SOL    HW113052   3.198   3.598   6.660
 4132SOL    HW213053   3.091   3.497   6.732
 4133SOL     OW13054   1.945   3.120   6.608
 4133SOL    HW113055   1.940   3.119   6.708
 4133SOL    HW213056   1.862   3.079   6.570
 4134SOL     OW13057   2.550   3.524   7.302
 4134SOL    HW113058   2.494   3.605   7.311
 4134SOL    HW213059   2.602   3.528   7.216
 4135SOL     OW13060   3.588   1.997   6.109
 4135SOL    HW113061   3.661   1.980   6.042
 4135SOL    HW213062   3.557   1.910   6.147
 4136SOL     OW13063   3.250   3.435   6.063
 4136SOL    HW113064   3.317   3.447   5.989
 4136SOL    HW213065   3.210   3.524   6.086
 4137SOL     OW13066   1.992   3.656   7.437
 4137SOL    HW113067   1.951   3.582   7.490
 4137SOL    HW213068   2.056   3.707   7.495
 4138SOL     OW13069   3.142   2.789   6.258
 4138SOL    HW113070   3.202   2.708   6.260
 4138SOL    HW213071   3.182   2.858   6.198
 4139SOL     OW13072   2.692   3.135   7.008
 4139SOL    HW113073   2.687   3.168   7.103
 4139SOL    HW213074   2.606   3.154   6.962
 4140SOL     OW13075   2.534   3.478   5.740
 4140SOL    HW113076   2.543   3.488   5.641
 4140SOL    HW213077   2.494   3.389   5.761
 4141SOL     OW13078   3.512   3.582   6.980
 4141SOL    HW113079   3.565   3.592   6.896
 4141SOL    HW213080   3.485   3.672   7.014
 4142SOL     OW13081   3.703   2.037   6.549
 4142SOL    HW113082   3.742   1.952   6.513
 4142SOL    HW213083   3.605   2.039   6.530
 4143SOL     OW13084   2.125   2.188   6.306
 4143SOL    HW113085   2.046   2.239   6.272
 4143SOL    HW213086   2.116   2.173   6.404
 4144SOL     OW13087   3.056   3.474   5.617
 4144SOL    HW113088   3.062   3.381   5.654
 4144SOL    HW213089   2.997   3.474   5.537
 4145SOL     OW13090   3.366   3.469   5.630
 4145SOL    HW113091   3.274   3.506   5.637
 4145SOL    HW213092   3.404   3.489   5.540
 4146SOL     OW13093   2.234   3.150   7.076
 4146SOL    HW113094   2.221   3.243   7.042
 4146SOL    HW213095   2.150   3.098   7.063
 4147SOL     OW13096   3.476   3.154   6.875
 4147SOL    HW113097   3.536   3.157   6.955
 4147SOL    HW213098   3.401   3.218   6.888
 4148SOL     OW13099   2.876   2.098   6.557
 4148SOL    HW113100   2.868   2.062   6.464
 4148SOL    HW213101   2.874   2.022   6.622
 4149SOL     OW13102   2.452   3.349   6.077
 4149SOL    HW113103   2.494   3.291   6.007
 4149SOL    HW213104   2.408   3.428   6.033
 4150SOL     OW13105   3.571   2.247   6.967
 4150SOL    HW113106   3.644   2.316   6.971
 4150SOL    HW213107   3.599   2.172   6.908
 4151SOL     OW13108   2.117   3.210   5.876
 4151SOL    HW113109   2.021   3.211   5.849
 4151SOL    HW213110   2.129   3.263   5.960
 4152SOL     OW13111   1.967   2.875   7.312
 4152SOL    HW113112   1.890   2.842   7.366
 4152SOL    HW213113   2.052   2.845   7.354
 4153SOL     OW13114   2.534   2.065   7.075
 4153SOL    HW113115   2.624   2.049   7.035
 4153SOL    HW213116   2.542   2.070   7.174
 4154SOL     OW13117   1.937   2.207   5.619
 4154SOL    HW113118   1.845   2.179   5.590
 4154SOL    HW213119   1.968   2.284   5.563
 4155SOL     OW13120   3.302   2.718   6.984
 4155SOL    HW113121   3.245   2.770   6.921
 4155SOL    HW213122   3.398   2.730   6.960
 4156SOL     OW13123   1.934   2.028   5.904
 4156SOL    HW113124   1.917   2.111   5.850
 4156SOL    HW213125   2.024   1.991   5.882
 4157SOL     OW13126   3.045   3.197   5.705
 4157SOL    HW113127   2.946   3.186   5.707
 4157SOL    HW213128   3.079   3.212   5.798
 4158SOL     OW13129   3.355   3.629   6.545
 4158SOL    HW113130   3.388   3.693   6.476
 4158SOL    HW213131   3.421   3.623   6.620
 4159SOL     OW13132   3.312   3.082   7.219
 4159SOL    HW113133   3.303   3.072   7.318
 4159SOL    HW213134   3.408   3.075   7.193
 4160SOL     OW13135   2.252   3.603   7.146
 4160SOL    HW113136   2.161   3.644   7.144
 4160SOL    HW213137   2.245   3.509   7.178
 4161SOL     OW13138   3.536   2.745   6.840
 4161SOL    HW113139   3.509   2.656   6.803
 4161SOL    HW213140   3.537   2.813   6.767
 4162SOL     OW13141   3.087   2.187   6.035
 4162SOL    HW113142   3.152   2.113   6.024
 4162SOL    HW213143   3.107   2.237   6.119
 4163SOL     OW13144   3.639   2.204   7.228
 4163SOL    HW113145   3.622   2.235   7.134
 4163SOL    HW213146   3.555   2.167   7.266
 4164SOL     OW13147   3.592   2.796   7.103
 4164SOL    HW113148   3.630   2.887   7.118
 4164SOL    HW213149   3.584   2.779   7.004
 4165SOL     OW13150   2.721   3.236   5.602
 4165SOL    HW113151   2.675   3.251   5.690
 4165SOL    HW213152   2.765   3.321   5.572
 4166SOL     OW13153   2.523   3.652   6.539
 4166SOL    HW113154   2.477   3.740   6.526
 4166SOL    HW213155   2.622   3.664   6.532
 4167SOL     OW13156   2.945   2.846   5.673
 4167SOL    HW113157   2.922   2.899   5.591
 4167SOL    HW213158   3.026   2.790   5.654
 4168SOL     OW13159   3.723   3.431   6.437
 4168SOL    HW113160   3.652   3.419   6.367
 4168SOL    HW213161   3.724   3.352   6.497
 4169SOL     OW13162   2.083   3.176   7.430
 4169SOL    HW113163   2.018   3.103   7.409
 4169SOL    HW213164   2.087   3.190   7.528
 4170SOL     OW13165   1.941   3.102   6.239
 4170SOL    HW113166   1.940   3.055   6.327
 4170SOL    HW213167   2.023   3.074   6.188
 4171SOL     OW13168   2.534   3.253   7.210
 4171SOL    HW113169   2.456   3.203   7.248
 4171SOL    HW213170   2.531   3.348   7.241
 4172SOL     OW13171   3.686   2.054   6.813
 4172SOL    HW113172   3.682   1.964   6.857
 4172SOL    HW213173   3.689   2.043   6.714
 4173SOL     OW13174   2.290   2.286   6.106
 4173SOL    HW113175   2.320   2.214   6.044
 4173SOL    HW213176   2.251   2.246   6.189
 4174SOL     OW13177   3.567   3.349   6.690
 4174SOL    HW113178   3.474   3.324   6.663
 4174SOL    HW213179   3.593   3.299   6.772
 4175SOL     OW13180   2.179   2.409   6.866
 4175SOL    HW113181   2.217   2.350   6.938
 4175SOL    HW213182   2.219   2.383   6.778
 4176SOL     OW13183   2.674   3.448   6.273
 4176SOL    HW113184   2.706   3.458   6.179
 4176SOL    HW213185   2.595   3.386   6.275
 4177SOL     OW13186   3.286   2.076   6.698
 4177SOL    HW113187   3.338   2.011   6.753
 4177SOL    HW213188   3.237   2.139   6.759
 4178SOL     OW13189   2.863   1.896   6.740
 4178SOL    HW113190   2.800   1.824   6.709
 4178SOL    HW213191   2.956   1.860   6.740
 4179SOL     OW13192   2.632   3.192   5.887
 4179SOL    HW113193   2.586   3.105   5.904
 4179SOL    HW213194   2.723   3.189   5.928
 4180SOL     OW13195   2.480   3.429   6.870
 4180SOL    HW113196   2.475   3.511   6.927
 4180SOL    HW213197   2.569   3.426   6.825
 4181SOL     OW13198   3.214   1.914   5.754
 4181SOL    HW113199   3.249   1.873   5.670
 4181SOL    HW213200   3.124   1.876   5.774
 4182SOL     OW13201   3.162   2.315   6.277
 4182SOL    HW113202   3.103   2.395   6.281
 4182SOL    HW213203   3.177   2.280   6.370
 4183SOL     OW13204   3.455   2.083   6.468
 4183SOL    HW113205   3.371   2.082   6.522
 4183SOL    HW213206   3.457   2.166   6.412
 4184SOL     OW13207   1.901   2.939   5.886
 4184SOL    HW113208   2.000   2.928   5.877
 4184SOL    HW213209   1.861   2.853   5.918
 4185SOL     OW13210   2.737   3.508   5.923
 4185SOL    HW113211   2.660   3.473   5.869
 4185SOL    HW213212   2.705   3.579   5.985
 4186SOL     OW13213   2.092   2.490   7.561
 4186SOL    HW113214   1.999   2.488   7.598
 4186SOL    HW213215   2.093   2.451   7.469
 4187SOL     OW13216   3.617   2.469   7.679
 4187SOL    HW113217   3.605   2.456   7.580
 4187SOL    HW213218   3.587   2.388   7.728
 4188SOL     OW13219   2.093   3.575   7.931
 4188SOL    HW113220   2.127   3.652   7.985
 4188SOL    HW213221   2.137   3.575   7.841
 4189SOL     OW13222   2.092   3.296   7.986
 4189SOL    HW113223   2.066   3.392   7.986
 4189SOL    HW213224   2.021   3.242   8.031
 4190SOL     OW13225   3.704   3.629   7.807
 4190SOL    HW113226   3.758   3.600   7.887
 4190SOL    HW213227   3.734   3.719   7.778
 4191SOL     OW13228   1.889   3.458   7.565
 4191SOL    HW113229   1.870   3.362   7.586
 4191SOL    HW213230   1.856   3.516   7.640
 4192SOL     OW13231   3.551   2.784   8.060
 4192SOL    HW113232   3.646   2.755   8.068
 4192SOL    HW213233   3.543   2.849   7.985
 4193SOL     OW13234   3.503   2.970   7.880
 4193SOL    HW113235   3.589   2.972   7.828
 4193SOL    HW213236   3.517   3.017   7.968
 4194SOL     OW13237   2.671   1.866   7.950
 4194SOL    HW113238   2.711   1.957   7.941
 4194SOL    HW213239   2.571   1.874   7.956
 4195SOL     OW13240   3.387   2.861   7.638
 4195SOL    HW113241   3.324   2.785   7.651
 4195SOL    HW213242   3.435   2.879   7.724
 4196SOL     OW13243   3.438   3.524   7.755
 4196SOL    HW113244   3.527   3.570   7.758
 4196SOL    HW213245   3.417   3.500   7.660
 4197SOL     OW13246   1.938   2.673   8.237
 4197SOL    HW113247   2.037   2.661   8.246
 4197SOL    HW213248   1.914   2.768   8.258
 4198SOL     OW13249   2.727   2.210   7.643
 4198SOL    HW113250   2.786   2.273   7.594
 4198SOL    HW213251   2.746   2.116   7.614
 4199SOL     OW13252   2.183   2.805   7.690
 4199SOL    HW113253   2.265   2.844   7.648
 4199SOL    HW213254   2.156   2.723   7.641
 4200SOL     OW13255   2.973   3.638   7.685
 4200SOL    HW113256   2.913   3.576   7.735
 4200SOL    HW213257   3.004   3.594   7.600
 4201SOL     OW13258   3.494   3.239   7.529
 4201SOL    HW113259   3.462   3.333   7.519
 4201SOL    HW213260   3.418   3.176   7.517
 4202SOL     OW13261   2.326   3.605   7.771
 4202SOL    HW113262   2.359   3.644   7.857
 4202SOL    HW213263   2.402   3.598   7.706
 4203SOL     OW13264   3.262   1.969   7.874
 4203SOL    HW113265   3.238   1.932   7.784
 4203SOL    HW213266   3.361   1.985   7.878
 4204SOL     OW13267   2.244   2.562   7.928
 4204SOL    HW113268   2.289   2.472   7.925
 4204SOL    HW213269   2.150   2.551   7.961
 4205SOL     OW13270   2.476   1.984   7.565
 4205SOL    HW113271   2.574   1.962   7.572
 4205SOL    HW213272   2.445   1.967   7.472
 4206SOL     OW13273   2.401   1.926   7.960
 4206SOL    HW113274   2.320   1.927   8.018
 4206SOL    HW213275   2.404   2.009   7.905
 4207SOL     OW13276   3.296   3.050   7.489
 4207SOL    HW113277   3.328   2.974   7.546
 4207SOL    HW213278   3.204   3.077   7.519
 4208SOL     OW13279   2.159   1.897   7.619
 4208SOL    HW113280   2.208   1.981   7.598
 4208SOL    HW213281   2.221   1.832   7.664
 4209SOL     OW13282   2.797   2.098   7.928
 4209SOL    HW113283   2.749   2.139   7.850
 4209SOL    HW213284   2.896   2.096   7.909
 4210SOL     OW13285   2.321   3.014   8.189
 4210SOL    HW113286   2.250   2.987   8.254
 4210SOL    HW213287   2.295   2.986   8.096
 4211SOL     OW13288   3.133   3.659   8.039
 4211SOL    HW113289   3.177   3.723   7.975
 4211SOL    HW213290   3.083   3.711   8.109
 4212SOL     OW13291   3.719   2.695   7.825
 4212SOL    HW113292   3.761   2.631   7.889
 4212SOL    HW213293   3.681   2.644   7.747
 4213SOL     OW13294   2.350   3.247   7.622
 4213SOL    HW113295   2.263   3.232   7.669
 4213SOL    HW213296   2.333   3.273   7.527
 4214SOL     OW13297   3.252   2.437   7.526
 4214SOL    HW113298   3.198   2.416   7.607
 4214SOL    HW213299   3.343   2.396   7.535
 4215SOL     OW13300   2.389   2.118   7.776
 4215SOL    HW113301   2.416   2.059   7.701
 4215SOL    HW213302   2.389   2.213   7.745
 4216SOL     OW13303   2.229   2.962   7.949
 4216SOL    HW113304   2.222   3.045   7.893
 4216SOL    HW213305   2.233   2.882   7.889
 4217SOL     OW13306   3.114   3.210   7.836
 4217SOL    HW113307   3.164   3.287   7.876
 4217SOL    HW213308   3.019   3.212   7.868
 4218SOL     OW13309   3.444   2.501   7.920
 4218SOL    HW113310   3.413   2.562   7.993
 4218SOL    HW213311   3.494   2.553   7.851
 4219SOL     OW13312   3.071   2.387   7.723
 4219SOL    HW113313   3.084   2.303   7.777
 4219SOL    HW213314   3.042   2.461   7.783
 4220SOL     OW13315   3.484   2.229   7.822
 4220SOL    HW113316   3.486   2.153   7.886
 4220SOL    HW213317   3.436   2.306   7.862
 4221SOL     OW13318   3.402   2.136   7.573
 4221SOL    HW113319   3.341   2.061   7.596
 4221SOL    HW213320   3.424   2.188   7.656
 4222SOL     OW13321   3.165   2.700   7.490
 4222SOL    HW113322   3.199   2.607   7.505
 4222SOL    HW213323   3.183   2.727   7.395
 4223SOL     OW13324   1.870   3.188   7.648
 4223SOL    HW113325   1.777   3.209   7.617
 4223SOL    HW213326   1.880   3.089   7.661
 4224SOL     OW13327   2.335   2.362   7.639
 4224SOL    HW113328   2.396   2.442   7.643
 4224SOL    HW213329   2.240   2.393   7.646
 4225SOL     OW13330   3.164   2.717   7.757
 4225SOL    HW113331   3.078   2.686   7.799
 4225SOL    HW213332   3.160   2.703   7.658
 4226SOL     OW13333   3.588   1.997   7.971
 4226SOL    HW113334   3.661   1.980   7.904
 4226SOL    HW213335   3.557   1.910   8.009
 4227SOL     OW13336   3.250   3.435   7.925
 4227SOL    HW113337   3.317   3.447   7.851
 4227SOL    HW213338   3.210   3.524   7.948
 4228SOL     OW13339   2.534   3.478   7.602
 4228SOL    HW113340   2.543   3.488   7.503
 4228SOL    HW213341   2.494   3.389   7.623
 4229SOL     OW13342   3.056   3.474   7.479
 4229SOL    HW113343   3.062   3.381   7.516
 4229SOL    HW213344   2.997   3.474   7.399
 4230SOL     OW13345   3.366   3.469   7.492
 4230SOL    HW113346   3.274   3.506   7.499
 4230SOL    HW213347   3.404   3.489   7.402
 4231SOL     OW13348   2.452   3.349   7.939
 4231SOL    HW113349   2.494   3.291   7.869
 4231SOL    HW213350   2.408   3.428   7.895
 4232SOL     OW13351   2.117   3.210   7.738
 4232SOL    HW113352   2.021   3.211   7.711
 4232SOL    HW213353   2.129   3.263   7.822
 4233SOL     OW13354   1.937   2.207   7.481
 4233SOL    HW113355   1.845   2.179   7.452
 4233SOL    HW213356   1.968   2.284   7.425
 4234SOL     OW13357   1.934   2.028   7.766
 4234SOL    HW113358   1.917   2.111   7.712
 4234SOL    HW213359   2.024   1.991   7.744
 4235SOL     OW13360   3.045   3.197   7.567
 4235SOL    HW113361   2.946   3.186   7.569
 4235SOL    HW213362   3.079   3.212   7.660
 4236SOL     OW13363   3.087   2.187   7.897
 4236SOL    HW113364   3.152   2.113   7.886
 4236SOL    HW213365   3.107   2.237   7.981
 4237SOL     OW13366   2.721   3.236   7.464
 4237SOL    HW113367   2.675   3.251   7.552
 4237SOL    HW213368   2.765   3.321   7.434
 4238SOL     OW13369   2.945   2.846   7.535
 4238SOL    HW113370   2.922   2.899   7.453
 4238SOL    HW213371   3.026   2.790   7.516
 4239SOL     OW13372   2.290   2.286   7.968
 4239SOL    HW113373   2.320   2.214   7.906
 4239SOL    HW213374   2.251   2.246   8.051
 4240SOL     OW13375   2.632   3.192   7.749
 4240SOL    HW113376   2.586   3.105   7.766
 4240SOL    HW213377   2.723   3.189   7.790
 4241SOL     OW13378   3.214   1.914   7.616
 4241SOL    HW113379   3.249   1.873   7.532
 4241SOL    HW213380   3.124   1.876   7.636
 4242SOL     OW13381   1.901   2.939   7.748
 4242SOL    HW113382   2.000   2.928   7.739
 4242SOL    HW213383   1.861   2.853   7.780
 4243SOL     OW13384   2.737   3.508   7.785
 4243SOL    HW113385   2.660   3.473   7.731
 4243SOL    HW213386   2.705   3.579   7.847
 4244SOL     OW13387   2.092   4.352   0.113
 4244SOL    HW113388   1.999   4.350   0.150
 4244SOL    HW213389   2.093   4.313   0.021
 4245SOL     OW13390   2.087   3.999   0.996
 4245SOL    HW113391   2.122   3.982   1.088
 4245SOL    HW213392   1.999   3.954   0.984
 4246SOL     OW13393   1.881   4.092   0.647
 4246SOL    HW113394   1.799   4.135   0.686
 4246SOL    HW213395   1.853   4.019   0.584
 4247SOL     OW13396   2.431   4.999   1.165
 4247SOL    HW113397   2.338   4.992   1.128
 4247SOL    HW213398   2.442   5.088   1.209
 4248SOL     OW13399   3.417   5.235   0.703
 4248SOL    HW113400   3.360   5.219   0.784
 4248SOL    HW213401   3.358   5.245   0.623
 4249SOL     OW13402   2.997   4.427   0.717
 4249SOL    HW113403   3.054   4.505   0.692
 4249SOL    HW213404   2.937   4.453   0.793
 4250SOL     OW13405   3.617   4.331   0.231
 4250SOL    HW113406   3.605   4.318   0.132
 4250SOL    HW213407   3.587   4.250   0.280
 4251SOL     OW13408   2.630   4.868   1.023
 4251SOL    HW113409   2.552   4.885   1.083
 4251SOL    HW213410   2.664   4.955   0.987
 4252SOL     OW13411   2.712   4.522   1.823
 4252SOL    HW113412   2.708   4.598   1.888
 4252SOL    HW213413   2.734   4.558   1.732
 4253SOL     OW13414   2.547   4.736   0.665
 4253SOL    HW113415   2.616   4.720   0.735
 4253SOL    HW213416   2.474   4.793   0.703
 4254SOL     OW13417   2.548   4.885   1.803
 4254SOL    HW113418   2.608   4.964   1.817
 4254SOL    HW213419   2.462   4.916   1.762
 4255SOL     OW13420   2.197   5.159   1.061
 4255SOL    HW113421   2.119   5.128   1.008
 4255SOL    HW213422   2.255   5.217   1.004
 4256SOL     OW13423   3.322   5.229   1.339
 4256SOL    HW113424   3.346   5.323   1.365
 4256SOL    HW213425   3.306   5.175   1.421
 4257SOL     OW13426   2.300   4.116   1.499
 4257SOL    HW113427   2.382   4.060   1.508
 4257SOL    HW213428   2.219   4.058   1.503
 4258SOL     OW13429   3.465   4.171   0.737
 4258SOL    HW113430   3.391   4.217   0.687
 4258SOL    HW213431   3.516   4.239   0.790
 4259SOL     OW13432   2.989   5.065   1.690
 4259SOL    HW113433   3.036   5.065   1.778
 4259SOL    HW213434   2.941   4.978   1.679
 4260SOL     OW13435   2.092   5.158   0.538
 4260SOL    HW113436   2.066   5.254   0.538
 4260SOL    HW213437   2.021   5.104   0.583
 4261SOL     OW13438   2.102   4.815   0.886
 4261SOL    HW113439   2.116   4.731   0.938
 4261SOL    HW213440   2.047   4.879   0.941
 4262SOL     OW13441   2.468   4.688   0.123
 4262SOL    HW113442   2.475   4.772   0.069
 4262SOL    HW213443   2.514   4.701   0.211
 4263SOL     OW13444   3.456   3.838   1.480
 4263SOL    HW113445   3.438   3.905   1.408
 4263SOL    HW213446   3.453   3.884   1.569
 4264SOL     OW13447   1.984   4.367   0.563
 4264SOL    HW113448   1.939   4.279   0.580
 4264SOL    HW213449   1.983   4.421   0.647
 4265SOL     OW13450   1.889   5.320   0.117
 4265SOL    HW113451   1.870   5.224   0.138
 4265SOL    HW213452   1.856   5.378   0.192
 4266SOL     OW13453   3.551   4.646   0.612
 4266SOL    HW113454   3.646   4.617   0.620
 4266SOL    HW213455   3.543   4.711   0.537
 4267SOL     OW13456   3.503   4.832   0.432
 4267SOL    HW113457   3.589   4.834   0.380
 4267SOL    HW213458   3.517   4.879   0.520
 4268SOL     OW13459   1.975   4.461   1.597
 4268SOL    HW113460   2.063   4.448   1.642
 4268SOL    HW213461   1.962   4.558   1.575
 4269SOL     OW13462   2.475   5.089   0.726
 4269SOL    HW113463   2.426   5.002   0.735
 4269SOL    HW213464   2.452   5.132   0.639
 4270SOL     OW13465   3.155   4.952   1.423
 4270SOL    HW113466   3.192   4.879   1.365
 4270SOL    HW213467   3.207   4.957   1.508
 4271SOL     OW13468   2.671   3.728   0.502
 4271SOL    HW113469   2.711   3.819   0.493
 4271SOL    HW213470   2.571   3.736   0.508
 4272SOL     OW13471   2.059   4.700   1.264
 4272SOL    HW113472   2.148   4.655   1.250
 4272SOL    HW213473   1.986   4.635   1.245
 4273SOL     OW13474   3.387   4.723   0.190
 4273SOL    HW113475   3.324   4.647   0.203
 4273SOL    HW213476   3.435   4.741   0.276
 4274SOL     OW13477   2.179   3.975   1.801
 4274SOL    HW113478   2.250   4.046   1.807
 4274SOL    HW213479   2.091   4.014   1.829
 4275SOL     OW13480   3.328   5.141   0.953
 4275SOL    HW113481   3.269   5.147   1.033
 4275SOL    HW213482   3.313   5.053   0.907
 4276SOL     OW13483   2.460   4.453   0.270
 4276SOL    HW113484   2.484   4.522   0.202
 4276SOL    HW213485   2.382   4.486   0.324
 4277SOL     OW13486   3.143   4.069   0.944
 4277SOL    HW113487   3.057   4.019   0.931
 4277SOL    HW213488   3.205   4.015   1.000
 4278SOL     OW13489   2.669   4.329   1.465
 4278SOL    HW113490   2.622   4.326   1.554
 4278SOL    HW213491   2.618   4.274   1.399
 4279SOL     OW13492   3.256   4.193   1.674
 4279SOL    HW113493   3.236   4.236   1.762
 4279SOL    HW213494   3.334   4.131   1.683
 4280SOL     OW13495   2.835   4.614   1.572
 4280SOL    HW113496   2.881   4.530   1.543
 4280SOL    HW213497   2.779   4.648   1.497
 4281SOL     OW13498   2.853   4.134   1.242
 4281SOL    HW113499   2.776   4.168   1.296
 4281SOL    HW213500   2.819   4.083   1.163
 4282SOL     OW13501   2.903   4.425   0.429
 4282SOL    HW113502   2.929   4.421   0.525
 4282SOL    HW213503   2.818   4.374   0.415
 4283SOL     OW13504   1.938   4.535   0.789
 4283SOL    HW113505   2.037   4.523   0.798
 4283SOL    HW213506   1.914   4.630   0.810
 4284SOL     OW13507   2.727   4.072   0.195
 4284SOL    HW113508   2.786   4.135   0.146
 4284SOL    HW213509   2.746   3.978   0.166
 4285SOL     OW13510   3.581   4.309   1.831
 4285SOL    HW113511   3.555   4.398   1.795
 4285SOL    HW213512   3.579   4.241   1.758
 4286SOL     OW13513   3.224   4.868   0.545
 4286SOL    HW113514   3.307   4.839   0.497
 4286SOL    HW213515   3.175   4.935   0.489
 4287SOL     OW13516   2.412   3.920   0.885
 4287SOL    HW113517   2.407   3.915   0.985
 4287SOL    HW213518   2.414   4.016   0.856
 4288SOL     OW13519   2.870   5.180   0.477
 4288SOL    HW113520   2.824   5.252   0.425
 4288SOL    HW213521   2.866   5.200   0.575
 4289SOL     OW13522   3.657   4.790   0.873
 4289SOL    HW113523   3.595   4.775   0.797
 4289SOL    HW213524   3.605   4.801   0.958
 4290SOL     OW13525   3.089   5.274   1.506
 4290SOL    HW113526   3.095   5.197   1.570
 4290SOL    HW213527   3.037   5.248   1.426
 4291SOL     OW13528   2.183   4.667   0.242
 4291SOL    HW113529   2.265   4.706   0.200
 4291SOL    HW213530   2.156   4.585   0.193
 4292SOL     OW13531   3.320   4.459   0.728
 4292SOL    HW113532   3.315   4.394   0.803
 4292SOL    HW213533   3.400   4.518   0.741
 4293SOL     OW13534   2.323   4.990   1.727
 4293SOL    HW113535   2.273   4.991   1.641
 4293SOL    HW213536   2.260   4.972   1.803
 4294SOL     OW13537   2.973   5.500   0.237
 4294SOL    HW113538   2.913   5.438   0.287
 4294SOL    HW213539   3.004   5.456   0.152
 4295SOL     OW13540   2.064   4.009   1.498
 4295SOL    HW113541   1.984   4.069   1.485
 4295SOL    HW213542   2.054   3.960   1.584
 4296SOL     OW13543   3.494   5.101   0.081
 4296SOL    HW113544   3.462   5.195   0.071
 4296SOL    HW213545   3.418   5.038   0.069
 4297SOL     OW13546   3.262   3.831   0.426
 4297SOL    HW113547   3.238   3.794   0.336
 4297SOL    HW213548   3.361   3.847   0.430
 4298SOL     OW13549   2.244   4.424   0.480
 4298SOL    HW113550   2.289   4.334   0.477
 4298SOL    HW213551   2.150   4.413   0.513
 4299SOL     OW13552   3.409   3.946   1.729
 4299SOL    HW113553   3.404   3.983   1.821
 4299SOL    HW213554   3.337   3.877   1.717
 4300SOL     OW13555   2.476   3.846   0.117
 4300SOL    HW113556   2.574   3.824   0.124
 4300SOL    HW213557   2.445   3.829   0.024
 4301SOL     OW13558   2.643   3.988   1.749
 4301SOL    HW113559   2.710   3.927   1.792
 4301SOL    HW213560   2.570   4.007   1.814
 4302SOL     OW13561   3.213   4.314   1.433
 4302SOL    HW113562   3.241   4.271   1.518
 4302SOL    HW213563   3.238   4.410   1.434
 4303SOL     OW13564   2.665   5.126   0.924
 4303SOL    HW113565   2.755   5.140   0.882
 4303SOL    HW213566   2.594   5.128   0.853
 4304SOL     OW13567   2.784   4.227   0.899
 4304SOL    HW113568   2.759   4.218   0.803
 4304SOL    HW213569   2.832   4.145   0.930
 4305SOL     OW13570   2.401   3.788   0.512
 4305SOL    HW113571   2.320   3.789   0.570
 4305SOL    HW213572   2.404   3.871   0.457
 4306SOL     OW13573   3.296   4.912   0.041
 4306SOL    HW113574   3.328   4.836   0.098
 4306SOL    HW213575   3.204   4.939   0.071
 4307SOL     OW13576   2.159   3.759   0.171
 4307SOL    HW113577   2.208   3.843   0.150
 4307SOL    HW213578   2.221   3.694   0.216
 4308SOL     OW13579   2.797   3.960   0.480
 4308SOL    HW113580   2.749   4.001   0.402
 4308SOL    HW213581   2.896   3.958   0.461
 4309SOL     OW13582   2.938   4.407   1.464
 4309SOL    HW113583   2.858   4.346   1.467
 4309SOL    HW213584   3.019   4.354   1.440
 4310SOL     OW13585   3.089   5.294   0.793
 4310SOL    HW113586   3.110   5.368   0.728
 4310SOL    HW213587   3.157   5.294   0.866
 4311SOL     OW13588   2.321   4.876   0.741
 4311SOL    HW113589   2.250   4.849   0.806
 4311SOL    HW213590   2.295   4.848   0.648
 4312SOL     OW13591   2.894   4.273   0.016
 4312SOL    HW113592   2.853   4.355  -0.023
 4312SOL    HW213593   2.958   4.299   0.089
 4313SOL     OW13594   1.940   4.280   1.386
 4313SOL    HW113595   2.032   4.279   1.345
 4313SOL    HW213596   1.934   4.354   1.453
 4314SOL     OW13597   2.423   3.946   1.147
 4314SOL    HW113598   2.461   3.862   1.184
 4314SOL    HW213599   2.335   3.965   1.191
 4315SOL     OW13600   2.728   4.178   0.642
 4315SOL    HW113601   2.696   4.250   0.580
 4315SOL    HW213602   2.752   4.097   0.589
 4316SOL     OW13603   2.879   3.763   0.753
 4316SOL    HW113604   2.807   3.768   0.684
 4316SOL    HW213605   2.855   3.694   0.822
 4317SOL     OW13606   3.291   4.897   0.867
 4317SOL    HW113607   3.236   4.813   0.860
 4317SOL    HW213608   3.317   4.926   0.775
 4318SOL     OW13609   3.328   4.314   0.992
 4318SOL    HW113610   3.298   4.219   0.999
 4318SOL    HW213611   3.401   4.330   1.058
 4319SOL     OW13612   3.719   4.557   0.377
 4319SOL    HW113613   3.761   4.493   0.441
 4319SOL    HW213614   3.681   4.506   0.299
 4320SOL     OW13615   2.350   5.109   0.174
 4320SOL    HW113616   2.263   5.094   0.221
 4320SOL    HW213617   2.333   5.135   0.079
 4321SOL     OW13618   3.526   5.004   0.657
 4321SOL    HW113619   3.625   5.012   0.671
 4321SOL    HW213620   3.481   5.088   0.688
 4322SOL     OW13621   3.252   4.299   0.078
 4322SOL    HW113622   3.198   4.278   0.159
 4322SOL    HW213623   3.343   4.258   0.087
 4323SOL     OW13624   2.389   3.980   0.328
 4323SOL    HW113625   2.416   3.921   0.253
 4323SOL    HW213626   2.389   4.075   0.297
 4324SOL     OW13627   3.616   4.947   1.588
 4324SOL    HW113628   3.707   4.908   1.575
 4324SOL    HW213629   3.624   5.043   1.612
 4325SOL     OW13630   2.926   5.071   1.340
 4325SOL    HW113631   2.846   5.048   1.395
 4325SOL    HW213632   3.009   5.045   1.389
 4326SOL     OW13633   2.973   4.919   1.100
 4326SOL    HW113634   2.933   4.963   1.181
 4326SOL    HW213635   2.932   4.956   1.017
 4327SOL     OW13636   3.500   4.823   1.079
 4327SOL    HW113637   3.505   4.904   1.138
 4327SOL    HW213638   3.414   4.825   1.028
 4328SOL     OW13639   2.777   3.813   1.402
 4328SOL    HW113640   2.802   3.793   1.307
 4328SOL    HW213641   2.849   3.869   1.444
 4329SOL     OW13642   2.842   4.840   1.719
 4329SOL    HW113643   2.743   4.846   1.729
 4329SOL    HW213644   2.865   4.760   1.663
 4330SOL     OW13645   2.567   4.774   0.368
 4330SOL    HW113646   2.553   4.781   0.467
 4330SOL    HW213647   2.651   4.723   0.350
 4331SOL     OW13648   2.272   4.537   1.251
 4331SOL    HW113649   2.358   4.549   1.301
 4331SOL    HW213650   2.230   4.450   1.278
 4332SOL     OW13651   3.136   4.110   1.262
 4332SOL    HW113652   3.157   4.184   1.326
 4332SOL    HW213653   3.047   4.127   1.219
 4333SOL     OW13654   2.229   4.824   0.501
 4333SOL    HW113655   2.222   4.907   0.445
 4333SOL    HW213656   2.233   4.744   0.441
 4334SOL     OW13657   2.428   4.261   0.865
 4334SOL    HW113658   2.440   4.327   0.791
 4334SOL    HW213659   2.474   4.295   0.948
 4335SOL     OW13660   3.114   5.072   0.388
 4335SOL    HW113661   3.164   5.149   0.428
 4335SOL    HW213662   3.019   5.074   0.420
 4336SOL     OW13663   3.134   5.169   1.142
 4336SOL    HW113664   3.181   5.182   1.229
 4336SOL    HW213665   3.068   5.095   1.151
 4337SOL     OW13666   3.444   4.363   0.472
 4337SOL    HW113667   3.413   4.424   0.545
 4337SOL    HW213668   3.494   4.415   0.403
 4338SOL     OW13669   2.216   5.234   1.329
 4338SOL    HW113670   2.195   5.190   1.242
 4338SOL    HW213671   2.313   5.260   1.332
 4339SOL     OW13672   2.264   4.475   1.598
 4339SOL    HW113673   2.332   4.530   1.551
 4339SOL    HW213674   2.304   4.387   1.625
 4340SOL     OW13675   3.449   4.503   1.670
 4340SOL    HW113676   3.357   4.541   1.665
 4340SOL    HW213677   3.509   4.550   1.605
 4341SOL     OW13678   2.875   3.829   1.770
 4341SOL    HW113679   2.881   3.914   1.718
 4341SOL    HW213680   2.907   3.753   1.713
 4342SOL     OW13681   2.366   3.774   1.740
 4342SOL    HW113682   2.324   3.717   1.670
 4342SOL    HW213683   2.300   3.843   1.772
 4343SOL     OW13684   2.435   4.594   1.029
 4343SOL    HW113685   2.479   4.683   1.020
 4343SOL    HW213686   2.372   4.594   1.106
 4344SOL     OW13687   3.222   4.586   1.045
 4344SOL    HW113688   3.147   4.586   0.979
 4344SOL    HW213689   3.259   4.494   1.054
 4345SOL     OW13690   3.071   4.249   0.275
 4345SOL    HW113691   3.084   4.165   0.329
 4345SOL    HW213692   3.042   4.323   0.335
 4346SOL     OW13693   2.169   3.937   1.231
 4346SOL    HW113694   2.146   3.974   1.321
 4346SOL    HW213695   2.139   3.842   1.225
 4347SOL     OW13696   1.899   5.034   1.282
 4347SOL    HW113697   1.952   4.985   1.350
 4347SOL    HW213698   1.921   5.132   1.287
 4348SOL     OW13699   2.594   4.358   1.064
 4348SOL    HW113700   2.653   4.332   0.988
 4348SOL    HW213701   2.566   4.454   1.053
 4349SOL     OW13702   3.590   4.659   1.854
 4349SOL    HW113703   3.544   4.652   1.765
 4349SOL    HW213704   3.528   4.703   1.920
 4350SOL     OW13705   2.169   3.787   0.618
 4350SOL    HW113706   2.158   3.881   0.651
 4350SOL    HW213707   2.164   3.724   0.695
 4351SOL     OW13708   3.484   4.091   0.374
 4351SOL    HW113709   3.486   4.015   0.438
 4351SOL    HW213710   3.436   4.168   0.414
 4352SOL     OW13711   2.885   4.490   0.966
 4352SOL    HW113712   2.900   4.511   1.062
 4352SOL    HW213713   2.855   4.395   0.957
 4353SOL     OW13714   3.721   5.242   1.605
 4353SOL    HW113715   3.735   5.269   1.510
 4353SOL    HW213716   3.804   5.264   1.658
 4354SOL     OW13717   2.212   4.622   1.804
 4354SOL    HW113718   2.288   4.666   1.852
 4354SOL    HW213719   2.247   4.575   1.722
 4355SOL     OW13720   3.402   3.998   0.125
 4355SOL    HW113721   3.341   3.923   0.148
 4355SOL    HW213722   3.424   4.050   0.208
 4356SOL     OW13723   3.165   4.562   0.042
 4356SOL    HW113724   3.199   4.469   0.057
 4356SOL    HW213725   3.183   4.589  -0.053
 4357SOL     OW13726   2.930   5.057   0.849
 4357SOL    HW113727   2.937   4.973   0.794
 4357SOL    HW213728   2.992   5.126   0.813
 4358SOL     OW13729   2.181   4.534   0.949
 4358SOL    HW113730   2.274   4.570   0.954
 4358SOL    HW213731   2.175   4.449   1.001
 4359SOL     OW13732   2.201   4.233   1.006
 4359SOL    HW113733   2.149   4.150   0.989
 4359SOL    HW213734   2.278   4.238   0.942
 4360SOL     OW13735   3.000   4.104   1.678
 4360SOL    HW113736   2.955   4.167   1.742
 4360SOL    HW213737   3.093   4.135   1.661
 4361SOL     OW13738   3.022   3.931   1.477
 4361SOL    HW113739   3.022   3.995   1.554
 4361SOL    HW213740   3.050   3.979   1.394
 4362SOL     OW13741   1.870   5.050   0.200
 4362SOL    HW113742   1.777   5.071   0.169
 4362SOL    HW213743   1.880   4.951   0.213
 4363SOL     OW13744   2.864   4.520   1.238
 4363SOL    HW113745   2.905   4.488   1.324
 4363SOL    HW213746   2.768   4.493   1.235
 4364SOL     OW13747   1.902   4.268   1.114
 4364SOL    HW113748   1.987   4.235   1.073
 4364SOL    HW213749   1.915   4.283   1.212
 4365SOL     OW13750   2.051   4.244   1.722
 4365SOL    HW113751   2.110   4.204   1.652
 4365SOL    HW213752   1.993   4.315   1.681
 4366SOL     OW13753   3.231   4.674   1.660
 4366SOL    HW113754   3.270   4.763   1.680
 4366SOL    HW213755   3.241   4.654   1.563
 4367SOL     OW13756   2.677   4.296   0.325
 4367SOL    HW113757   2.684   4.207   0.279
 4367SOL    HW213758   2.583   4.330   0.317
 4368SOL     OW13759   3.519   4.328   1.206
 4368SOL    HW113760   3.481   4.259   1.268
 4368SOL    HW213761   3.601   4.292   1.162
 4369SOL     OW13762   2.114   5.288   1.744
 4369SOL    HW113763   2.084   5.345   1.820
 4369SOL    HW213764   2.107   5.191   1.770
 4370SOL     OW13765   2.533   4.188   1.269
 4370SOL    HW113766   2.499   4.099   1.239
 4370SOL    HW213767   2.559   4.242   1.189
 4371SOL     OW13768   2.335   4.224   0.191
 4371SOL    HW113769   2.396   4.304   0.195
 4371SOL    HW213770   2.240   4.255   0.198
 4372SOL     OW13771   2.021   4.861   1.466
 4372SOL    HW113772   2.043   4.800   1.542
 4372SOL    HW213773   2.031   4.812   1.380
 4373SOL     OW13774   3.209   4.783   1.234
 4373SOL    HW113775   3.233   4.720   1.160
 4373SOL    HW213776   3.119   4.823   1.216
 4374SOL     OW13777   3.164   4.579   0.309
 4374SOL    HW113778   3.078   4.548   0.351
 4374SOL    HW213779   3.160   4.565   0.210
 4375SOL     OW13780   1.945   4.982   1.022
 4375SOL    HW113781   1.940   4.981   1.122
 4375SOL    HW213782   1.862   4.941   0.984
 4376SOL     OW13783   2.550   5.386   1.716
 4376SOL    HW113784   2.494   5.467   1.725
 4376SOL    HW213785   2.602   5.390   1.630
 4377SOL     OW13786   2.765   3.810   0.133
 4377SOL    HW113787   2.816   3.811   0.047
 4377SOL    HW213788   2.821   3.768   0.204
 4378SOL     OW13789   3.588   3.859   0.523
 4378SOL    HW113790   3.661   3.842   0.456
 4378SOL    HW213791   3.557   3.772   0.561
 4379SOL     OW13792   3.142   4.651   0.672
 4379SOL    HW113793   3.202   4.570   0.674
 4379SOL    HW213794   3.182   4.720   0.612
 4380SOL     OW13795   2.692   4.997   1.422
 4380SOL    HW113796   2.687   5.030   1.517
 4380SOL    HW213797   2.606   5.016   1.376
 4381SOL     OW13798   3.703   3.899   0.963
 4381SOL    HW113799   3.742   3.814   0.927
 4381SOL    HW213800   3.605   3.901   0.944
 4382SOL     OW13801   2.125   4.050   0.720
 4382SOL    HW113802   2.046   4.101   0.686
 4382SOL    HW213803   2.116   4.035   0.818
 4383SOL     OW13804   3.056   5.336   0.031
 4383SOL    HW113805   3.062   5.243   0.068
 4383SOL    HW213806   2.997   5.336  -0.049
 4384SOL     OW13807   2.684   4.726   1.372
 4384SOL    HW113808   2.724   4.725   1.280
 4384SOL    HW213809   2.694   4.818   1.412
 4385SOL     OW13810   2.778   4.634   0.291
 4385SOL    HW113811   2.841   4.672   0.223
 4385SOL    HW213812   2.818   4.551   0.330
 4386SOL     OW13813   2.234   5.012   1.490
 4386SOL    HW113814   2.221   5.105   1.456
 4386SOL    HW213815   2.150   4.960   1.477
 4387SOL     OW13816   3.476   5.016   1.289
 4387SOL    HW113817   3.536   5.019   1.369
 4387SOL    HW213818   3.401   5.080   1.302
 4388SOL     OW13819   2.901   4.822   0.696
 4388SOL    HW113820   2.831   4.775   0.750
 4388SOL    HW213821   2.960   4.754   0.653
 4389SOL     OW13822   2.876   3.960   0.971
 4389SOL    HW113823   2.868   3.924   0.878
 4389SOL    HW213824   2.874   3.884   1.036
 4390SOL     OW13825   3.571   4.109   1.381
 4390SOL    HW113826   3.644   4.178   1.385
 4390SOL    HW213827   3.599   4.034   1.322
 4391SOL     OW13828   2.117   5.072   0.290
 4391SOL    HW113829   2.021   5.073   0.263
 4391SOL    HW213830   2.129   5.125   0.374
 4392SOL     OW13831   1.967   4.737   1.726
 4392SOL    HW113832   1.890   4.704   1.780
 4392SOL    HW213833   2.052   4.707   1.768
 4393SOL     OW13834   2.534   3.927   1.489
 4393SOL    HW113835   2.624   3.911   1.449
 4393SOL    HW213836   2.542   3.932   1.588
 4394SOL     OW13837   1.937   4.069   0.033
 4394SOL    HW113838   1.845   4.041   0.004
 4394SOL    HW213839   1.968   4.146  -0.023
 4395SOL     OW13840   3.302   4.580   1.398
 4395SOL    HW113841   3.245   4.632   1.335
 4395SOL    HW213842   3.398   4.592   1.374
 4396SOL     OW13843   1.934   3.890   0.318
 4396SOL    HW113844   1.917   3.973   0.264
 4396SOL    HW213845   2.024   3.853   0.296
 4397SOL     OW13846   3.045   5.059   0.119
 4397SOL    HW113847   2.946   5.048   0.121
 4397SOL    HW213848   3.079   5.074   0.212
 4398SOL     OW13849   2.475   4.566   1.431
 4398SOL    HW113850   2.531   4.647   1.414
 4398SOL    HW213851   2.534   4.486   1.434
 4399SOL     OW13852   2.578   4.289   1.708
 4399SOL    HW113853   2.597   4.354   1.782
 4399SOL    HW213854   2.638   4.209   1.717
 4400SOL     OW13855   3.312   4.944   1.633
 4400SOL    HW113856   3.303   4.934   1.732
 4400SOL    HW213857   3.408   4.937   1.607
 4401SOL     OW13858   3.536   4.607   1.254
 4401SOL    HW113859   3.509   4.518   1.217
 4401SOL    HW213860   3.537   4.675   1.181
 4402SOL     OW13861   3.087   4.049   0.449
 4402SOL    HW113862   3.152   3.975   0.438
 4402SOL    HW213863   3.107   4.099   0.533
 4403SOL     OW13864   2.456   4.469   0.652
 4403SOL    HW113865   2.506   4.554   0.633
 4403SOL    HW213866   2.368   4.471   0.604
 4404SOL     OW13867   3.639   4.066   1.642
 4404SOL    HW113868   3.622   4.097   1.548
 4404SOL    HW213869   3.555   4.029   1.680
 4405SOL     OW13870   3.592   4.658   1.517
 4405SOL    HW113871   3.630   4.749   1.532
 4405SOL    HW213872   3.584   4.641   1.418
 4406SOL     OW13873   2.721   5.098   0.016
 4406SOL    HW113874   2.675   5.113   0.104
 4406SOL    HW213875   2.765   5.183  -0.014
 4407SOL     OW13876   2.721   4.680   0.861
 4407SOL    HW113877   2.775   4.611   0.909
 4407SOL    HW213878   2.689   4.749   0.927
 4408SOL     OW13879   2.945   4.708   0.087
 4408SOL    HW113880   2.922   4.761   0.005
 4408SOL    HW213881   3.026   4.652   0.068
 4409SOL     OW13882   2.083   5.038   1.844
 4409SOL    HW113883   2.018   4.965   1.823
 4409SOL    HW213884   2.087   5.052   1.942
 4410SOL     OW13885   1.941   4.964   0.653
 4410SOL    HW113886   1.940   4.917   0.741
 4410SOL    HW213887   2.023   4.936   0.602
 4411SOL     OW13888   2.534   5.115   1.624
 4411SOL    HW113889   2.456   5.065   1.662
 4411SOL    HW213890   2.531   5.210   1.655
 4412SOL     OW13891   3.686   3.916   1.227
 4412SOL    HW113892   3.682   3.826   1.271
 4412SOL    HW213893   3.689   3.905   1.128
 4413SOL     OW13894   2.290   4.148   0.520
 4413SOL    HW113895   2.320   4.076   0.458
 4413SOL    HW213896   2.251   4.108   0.603
 4414SOL     OW13897   3.567   5.211   1.104
 4414SOL    HW113898   3.474   5.186   1.077
 4414SOL    HW213899   3.593   5.161   1.186
 4415SOL     OW13900   2.179   4.271   1.280
 4415SOL    HW113901   2.217   4.212   1.352
 4415SOL    HW213902   2.219   4.245   1.192
 4416SOL     OW13903   3.286   3.938   1.112
 4416SOL    HW113904   3.338   3.873   1.167
 4416SOL    HW213905   3.237   4.001   1.173
 4417SOL     OW13906   2.863   3.758   1.154
 4417SOL    HW113907   2.800   3.686   1.123
 4417SOL    HW213908   2.956   3.722   1.154
 4418SOL     OW13909   2.632   5.054   0.301
 4418SOL    HW113910   2.586   4.967   0.318
 4418SOL    HW213911   2.723   5.051   0.342
 4419SOL     OW13912   2.480   5.291   1.284
 4419SOL    HW113913   2.475   5.373   1.341
 4419SOL    HW213914   2.569   5.288   1.239
 4420SOL     OW13915   3.214   3.776   0.168
 4420SOL    HW113916   3.249   3.735   0.084
 4420SOL    HW213917   3.124   3.738   0.188
 4421SOL     OW13918   3.162   4.177   0.691
 4421SOL    HW113919   3.103   4.257   0.695
 4421SOL    HW213920   3.177   4.142   0.784
 4422SOL     OW13921   3.455   3.945   0.882
 4422SOL    HW113922   3.371   3.944   0.936
 4422SOL    HW213923   3.457   4.028   0.826
 4423SOL     OW13924   1.901   4.801   0.300
 4423SOL    HW113925   2.000   4.790   0.291
 4423SOL    HW213926   1.861   4.715   0.332
 4424SOL     OW13927   2.092   4.352   1.975
 4424SOL    HW113928   1.999   4.350   2.012
 4424SOL    HW213929   2.093   4.313   1.883
 4425SOL     OW13930   2.087   3.999   2.858
 4425SOL    HW113931   2.122   3.982   2.950
 4425SOL    HW213932   1.999   3.954   2.846
 4426SOL     OW13933   1.881   4.092   2.509
 4426SOL    HW113934   1.799   4.135   2.548
 4426SOL    HW213935   1.853   4.019   2.446
 4427SOL     OW13936   2.431   4.999   3.027
 4427SOL    HW113937   2.338   4.992   2.990
 4427SOL    HW213938   2.442   5.088   3.071
 4428SOL     OW13939   3.417   5.235   2.565
 4428SOL    HW113940   3.360   5.219   2.646
 4428SOL    HW213941   3.358   5.245   2.485
 4429SOL     OW13942   2.997   4.427   2.579
 4429SOL    HW113943   3.054   4.505   2.554
 4429SOL    HW213944   2.937   4.453   2.655
 4430SOL     OW13945   3.617   4.331   2.093
 4430SOL    HW113946   3.605   4.318   1.994
 4430SOL    HW213947   3.587   4.250   2.142
 4431SOL     OW13948   2.630   4.868   2.885
 4431SOL    HW113949   2.552   4.885   2.945
 4431SOL    HW213950   2.664   4.955   2.849
 4432SOL     OW13951   2.712   4.522   3.685
 4432SOL    HW113952   2.708   4.598   3.750
 4432SOL    HW213953   2.734   4.558   3.594
 4433SOL     OW13954   2.547   4.736   2.527
 4433SOL    HW113955   2.616   4.720   2.597
 4433SOL    HW213956   2.474   4.793   2.565
 4434SOL     OW13957   2.548   4.885   3.665
 4434SOL    HW113958   2.608   4.964   3.679
 4434SOL    HW213959   2.462   4.916   3.624
 4435SOL     OW13960   2.197   5.159   2.923
 4435SOL    HW113961   2.119   5.128   2.870
 4435SOL    HW213962   2.255   5.217   2.866
 4436SOL     OW13963   3.322   5.229   3.201
 4436SOL    HW113964   3.346   5.323   3.227
 4436SOL    HW213965   3.306   5.175   3.283
 4437SOL     OW13966   2.300   4.116   3.361
 4437SOL    HW113967   2.382   4.060   3.370
 4437SOL    HW213968   2.219   4.058   3.365
 4438SOL     OW13969   3.465   4.171   2.599
 4438SOL    HW113970   3.391   4.217   2.549
 4438SOL    HW213971   3.516   4.239   2.652
 4439SOL     OW13972   2.989   5.065   3.552
 4439SOL    HW113973   3.036   5.065   3.640
 4439SOL    HW213974   2.941   4.978   3.541
 4440SOL     OW13975   2.092   5.158   2.400
 4440SOL    HW113976   2.066   5.254   2.400
 4440SOL    HW213977   2.021   5.104   2.445
 4441SOL     OW13978   2.102   4.815   2.748
 4441SOL    HW113979   2.116   4.731   2.800
 4441SOL    HW213980   2.047   4.879   2.803
 4442SOL     OW13981   2.468   4.688   1.985
 4442SOL    HW113982   2.475   4.772   1.931
 4442SOL    HW213983   2.514   4.701   2.073
 4443SOL     OW13984   3.456   3.838   3.342
 4443SOL    HW113985   3.438   3.905   3.270
 4443SOL    HW213986   3.453   3.884   3.431
 4444SOL     OW13987   1.984   4.367   2.425
 4444SOL    HW113988   1.939   4.279   2.442
 4444SOL    HW213989   1.983   4.421   2.509
 4445SOL     OW13990   1.889   5.320   1.979
 4445SOL    HW113991   1.870   5.224   2.000
 4445SOL    HW213992   1.856   5.378   2.054
 4446SOL     OW13993   3.551   4.646   2.474
 4446SOL    HW113994   3.646   4.617   2.482
 4446SOL    HW213995   3.543   4.711   2.399
 4447SOL     OW13996   3.503   4.832   2.294
 4447SOL    HW113997   3.589   4.834   2.242
 4447SOL    HW213998   3.517   4.879   2.382
 4448SOL     OW13999   1.975   4.461   3.459
 4448SOL    HW114000   2.063   4.448   3.504
 4448SOL    HW214001   1.962   4.558   3.437
 4449SOL     OW14002   2.475   5.089   2.588
 4449SOL    HW114003   2.426   5.002   2.597
 4449SOL    HW214004   2.452   5.132   2.501
 4450SOL     OW14005   3.155   4.952   3.285
 4450SOL    HW114006   3.192   4.879   3.227
 4450SOL    HW214007   3.207   4.957   3.370
 4451SOL     OW14008   2.671   3.728   2.364
 4451SOL    HW114009   2.711   3.819   2.355
 4451SOL    HW214010   2.571   3.736   2.370
 4452SOL     OW14011   2.059   4.700   3.126
 4452SOL    HW114012   2.148   4.655   3.112
 4452SOL    HW214013   1.986   4.635   3.107
 4453SOL     OW14014   3.387   4.723   2.052
 4453SOL    HW114015   3.324   4.647   2.065
 4453SOL    HW214016   3.435   4.741   2.138
 4454SOL     OW14017   2.179   3.975   3.663
 4454SOL    HW114018   2.250   4.046   3.669
 4454SOL    HW214019   2.091   4.014   3.691
 4455SOL     OW14020   3.328   5.141   2.815
 4455SOL    HW114021   3.269   5.147   2.895
 4455SOL    HW214022   3.313   5.053   2.769
 4456SOL     OW14023   2.460   4.453   2.132
 4456SOL    HW114024   2.484   4.522   2.064
 4456SOL    HW214025   2.382   4.486   2.186
 4457SOL     OW14026   3.143   4.069   2.806
 4457SOL    HW114027   3.057   4.019   2.793
 4457SOL    HW214028   3.205   4.015   2.862
 4458SOL     OW14029   2.669   4.329   3.327
 4458SOL    HW114030   2.622   4.326   3.416
 4458SOL    HW214031   2.618   4.274   3.261
 4459SOL     OW14032   3.256   4.193   3.536
 4459SOL    HW114033   3.236   4.236   3.624
 4459SOL    HW214034   3.334   4.131   3.545
 4460SOL     OW14035   2.835   4.614   3.434
 4460SOL    HW114036   2.881   4.530   3.405
 4460SOL    HW214037   2.779   4.648   3.359
 4461SOL     OW14038   2.853   4.134   3.104
 4461SOL    HW114039   2.776   4.168   3.158
 4461SOL    HW214040   2.819   4.083   3.025
 4462SOL     OW14041   2.903   4.425   2.291
 4462SOL    HW114042   2.929   4.421   2.387
 4462SOL    HW214043   2.818   4.374   2.277
 4463SOL     OW14044   1.938   4.535   2.651
 4463SOL    HW114045   2.037   4.523   2.660
 4463SOL    HW214046   1.914   4.630   2.672
 4464SOL     OW14047   2.727   4.072   2.057
 4464SOL    HW114048   2.786   4.135   2.008
 4464SOL    HW214049   2.746   3.978   2.028
 4465SOL     OW14050   3.581   4.309   3.693
 4465SOL    HW114051   3.555   4.398   3.657
 4465SOL    HW214052   3.579   4.241   3.620
 4466SOL     OW14053   3.224   4.868   2.407
 4466SOL    HW114054   3.307   4.839   2.359
 4466SOL    HW214055   3.175   4.935   2.351
 4467SOL     OW14056   2.412   3.920   2.747
 4467SOL    HW114057   2.407   3.915   2.847
 4467SOL    HW214058   2.414   4.016   2.718
 4468SOL     OW14059   2.870   5.180   2.339
 4468SOL    HW114060   2.824   5.252   2.287
 4468SOL    HW214061   2.866   5.200   2.437
 4469SOL     OW14062   3.657   4.790   2.735
 4469SOL    HW114063   3.595   4.775   2.659
 4469SOL    HW214064   3.605   4.801   2.820
 4470SOL     OW14065   3.089   5.274   3.368
 4470SOL    HW114066   3.095   5.197   3.432
 4470SOL    HW214067   3.037   5.248   3.288
 4471SOL     OW14068   2.183   4.667   2.104
 4471SOL    HW114069   2.265   4.706   2.062
 4471SOL    HW214070   2.156   4.585   2.055
 4472SOL     OW14071   3.320   4.459   2.590
 4472SOL    HW114072   3.315   4.394   2.665
 4472SOL    HW214073   3.400   4.518   2.603
 4473SOL     OW14074   2.323   4.990   3.589
 4473SOL    HW114075   2.273   4.991   3.503
 4473SOL    HW214076   2.260   4.972   3.665
 4474SOL     OW14077   2.973   5.500   2.099
 4474SOL    HW114078   2.913   5.438   2.149
 4474SOL    HW214079   3.004   5.456   2.014
 4475SOL     OW14080   2.064   4.009   3.360
 4475SOL    HW114081   1.984   4.069   3.347
 4475SOL    HW214082   2.054   3.960   3.446
 4476SOL     OW14083   3.494   5.101   1.943
 4476SOL    HW114084   3.462   5.195   1.933
 4476SOL    HW214085   3.418   5.038   1.931
 4477SOL     OW14086   3.262   3.831   2.288
 4477SOL    HW114087   3.238   3.794   2.198
 4477SOL    HW214088   3.361   3.847   2.292
 4478SOL     OW14089   2.244   4.424   2.342
 4478SOL    HW114090   2.289   4.334   2.339
 4478SOL    HW214091   2.150   4.413   2.375
 4479SOL     OW14092   3.409   3.946   3.591
 4479SOL    HW114093   3.404   3.983   3.683
 4479SOL    HW214094   3.337   3.877   3.579
 4480SOL     OW14095   2.476   3.846   1.979
 4480SOL    HW114096   2.574   3.824   1.986
 4480SOL    HW214097   2.445   3.829   1.886
 4481SOL     OW14098   2.643   3.988   3.611
 4481SOL    HW114099   2.710   3.927   3.654
 4481SOL    HW214100   2.570   4.007   3.676
 4482SOL     OW14101   3.213   4.314   3.295
 4482SOL    HW114102   3.241   4.271   3.380
 4482SOL    HW214103   3.238   4.410   3.296
 4483SOL     OW14104   2.665   5.126   2.786
 4483SOL    HW114105   2.755   5.140   2.744
 4483SOL    HW214106   2.594   5.128   2.715
 4484SOL     OW14107   2.784   4.227   2.761
 4484SOL    HW114108   2.759   4.218   2.665
 4484SOL    HW214109   2.832   4.145   2.792
 4485SOL     OW14110   2.401   3.788   2.374
 4485SOL    HW114111   2.320   3.789   2.432
 4485SOL    HW214112   2.404   3.871   2.319
 4486SOL     OW14113   3.296   4.912   1.903
 4486SOL    HW114114   3.328   4.836   1.960
 4486SOL    HW214115   3.204   4.939   1.933
 4487SOL     OW14116   2.159   3.759   2.033
 4487SOL    HW114117   2.208   3.843   2.012
 4487SOL    HW214118   2.221   3.694   2.078
 4488SOL     OW14119   2.797   3.960   2.342
 4488SOL    HW114120   2.749   4.001   2.264
 4488SOL    HW214121   2.896   3.958   2.323
 4489SOL     OW14122   2.938   4.407   3.326
 4489SOL    HW114123   2.858   4.346   3.329
 4489SOL    HW214124   3.019   4.354   3.302
 4490SOL     OW14125   3.089   5.294   2.655
 4490SOL    HW114126   3.110   5.368   2.590
 4490SOL    HW214127   3.157   5.294   2.728
 4491SOL     OW14128   2.321   4.876   2.603
 4491SOL    HW114129   2.250   4.849   2.668
 4491SOL    HW214130   2.295   4.848   2.510
 4492SOL     OW14131   2.894   4.273   1.878
 4492SOL    HW114132   2.853   4.355   1.839
 4492SOL    HW214133   2.958   4.299   1.951
 4493SOL     OW14134   1.940   4.280   3.248
 4493SOL    HW114135   2.032   4.279   3.207
 4493SOL    HW214136   1.934   4.354   3.315
 4494SOL     OW14137   2.423   3.946   3.009
 4494SOL    HW114138   2.461   3.862   3.046
 4494SOL    HW214139   2.335   3.965   3.053
 4495SOL     OW14140   2.728   4.178   2.504
 4495SOL    HW114141   2.696   4.250   2.442
 4495SOL    HW214142   2.752   4.097   2.451
 4496SOL     OW14143   2.879   3.763   2.615
 4496SOL    HW114144   2.807   3.768   2.546
 4496SOL    HW214145   2.855   3.694   2.684
 4497SOL     OW14146   3.291   4.897   2.729
 4497SOL    HW114147   3.236   4.813   2.722
 4497SOL    HW214148   3.317   4.926   2.637
 4498SOL     OW14149   3.328   4.314   2.854
 4498SOL    HW114150   3.298   4.219   2.861
 4498SOL    HW214151   3.401   4.330   2.920
 4499SOL     OW14152   3.719   4.557   2.239
 4499SOL    HW114153   3.761   4.493   2.303
 4499SOL    HW214154   3.681   4.506   2.161
 4500SOL     OW14155   2.350   5.109   2.036
 4500SOL    HW114156   2.263   5.094   2.083
 4500SOL    HW214157   2.333   5.135   1.941
 4501SOL     OW14158   3.526   5.004   2.519
 4501SOL    HW114159   3.625   5.012   2.533
 4501SOL    HW214160   3.481   5.088   2.550
 4502SOL     OW14161   3.252   4.299   1.940
 4502SOL    HW114162   3.198   4.278   2.021
 4502SOL    HW214163   3.343   4.258   1.949
 4503SOL     OW14164   2.389   3.980   2.190
 4503SOL    HW114165   2.416   3.921   2.115
 4503SOL    HW214166   2.389   4.075   2.159
 4504SOL     OW14167   3.616   4.947   3.450
 4504SOL    HW114168   3.707   4.908   3.437
 4504SOL    HW214169   3.624   5.043   3.474
 4505SOL     OW14170   2.926   5.071   3.202
 4505SOL    HW114171   2.846   5.048   3.257
 4505SOL    HW214172   3.009   5.045   3.251
 4506SOL     OW14173   2.973   4.919   2.962
 4506SOL    HW114174   2.933   4.963   3.043
 4506SOL    HW214175   2.932   4.956   2.879
 4507SOL     OW14176   3.500   4.823   2.941
 4507SOL    HW114177   3.505   4.904   3.000
 4507SOL    HW214178   3.414   4.825   2.890
 4508SOL     OW14179   2.777   3.813   3.264
 4508SOL    HW114180   2.802   3.793   3.169
 4508SOL    HW214181   2.849   3.869   3.306
 4509SOL     OW14182   2.842   4.840   3.581
 4509SOL    HW114183   2.743   4.846   3.591
 4509SOL    HW214184   2.865   4.760   3.525
 4510SOL     OW14185   2.567   4.774   2.230
 4510SOL    HW114186   2.553   4.781   2.329
 4510SOL    HW214187   2.651   4.723   2.212
 4511SOL     OW14188   2.272   4.537   3.113
 4511SOL    HW114189   2.358   4.549   3.163
 4511SOL    HW214190   2.230   4.450   3.140
 4512SOL     OW14191   3.136   4.110   3.124
 4512SOL    HW114192   3.157   4.184   3.188
 4512SOL    HW214193   3.047   4.127   3.081
 4513SOL     OW14194   2.229   4.824   2.363
 4513SOL    HW114195   2.222   4.907   2.307
 4513SOL    HW214196   2.233   4.744   2.303
 4514SOL     OW14197   2.428   4.261   2.727
 4514SOL    HW114198   2.440   4.327   2.653
 4514SOL    HW214199   2.474   4.295   2.810
 4515SOL     OW14200   3.114   5.072   2.250
 4515SOL    HW114201   3.164   5.149   2.290
 4515SOL    HW214202   3.019   5.074   2.282
 4516SOL     OW14203   3.134   5.169   3.004
 4516SOL    HW114204   3.181   5.182   3.091
 4516SOL    HW214205   3.068   5.095   3.013
 4517SOL     OW14206   3.444   4.363   2.334
 4517SOL    HW114207   3.413   4.424   2.407
 4517SOL    HW214208   3.494   4.415   2.265
 4518SOL     OW14209   2.216   5.234   3.191
 4518SOL    HW114210   2.195   5.190   3.104
 4518SOL    HW214211   2.313   5.260   3.194
 4519SOL     OW14212   2.264   4.475   3.460
 4519SOL    HW114213   2.332   4.530   3.413
 4519SOL    HW214214   2.304   4.387   3.487
 4520SOL     OW14215   3.449   4.503   3.532
 4520SOL    HW114216   3.357   4.541   3.527
 4520SOL    HW214217   3.509   4.550   3.467
 4521SOL     OW14218   2.875   3.829   3.632
 4521SOL    HW114219   2.881   3.914   3.580
 4521SOL    HW214220   2.907   3.753   3.575
 4522SOL     OW14221   2.366   3.774   3.602
 4522SOL    HW114222   2.324   3.717   3.532
 4522SOL    HW214223   2.300   3.843   3.634
 4523SOL     OW14224   2.435   4.594   2.891
 4523SOL    HW114225   2.479   4.683   2.882
 4523SOL    HW214226   2.372   4.594   2.968
 4524SOL     OW14227   3.222   4.586   2.907
 4524SOL    HW114228   3.147   4.586   2.841
 4524SOL    HW214229   3.259   4.494   2.916
 4525SOL     OW14230   3.071   4.249   2.137
 4525SOL    HW114231   3.084   4.165   2.191
 4525SOL    HW214232   3.042   4.323   2.197
 4526SOL     OW14233   2.169   3.937   3.093
 4526SOL    HW114234   2.146   3.974   3.183
 4526SOL    HW214235   2.139   3.842   3.087
 4527SOL     OW14236   1.899   5.034   3.144
 4527SOL    HW114237   1.952   4.985   3.212
 4527SOL    HW214238   1.921   5.132   3.149
 4528SOL     OW14239   2.594   4.358   2.926
 4528SOL    HW114240   2.653   4.332   2.850
 4528SOL    HW214241   2.566   4.454   2.915
 4529SOL     OW14242   3.590   4.659   3.716
 4529SOL    HW114243   3.544   4.652   3.627
 4529SOL    HW214244   3.528   4.703   3.782
 4530SOL     OW14245   2.169   3.787   2.480
 4530SOL    HW114246   2.158   3.881   2.513
 4530SOL    HW214247   2.164   3.724   2.557
 4531SOL     OW14248   3.484   4.091   2.236
 4531SOL    HW114249   3.486   4.015   2.300
 4531SOL    HW214250   3.436   4.168   2.276
 4532SOL     OW14251   2.885   4.490   2.828
 4532SOL    HW114252   2.900   4.511   2.924
 4532SOL    HW214253   2.855   4.395   2.819
 4533SOL     OW14254   3.721   5.242   3.467
 4533SOL    HW114255   3.735   5.269   3.372
 4533SOL    HW214256   3.804   5.264   3.520
 4534SOL     OW14257   2.212   4.622   3.666
 4534SOL    HW114258   2.288   4.666   3.714
 4534SOL    HW214259   2.247   4.575   3.584
 4535SOL     OW14260   3.402   3.998   1.987
 4535SOL    HW114261   3.341   3.923   2.010
 4535SOL    HW214262   3.424   4.050   2.070
 4536SOL     OW14263   3.165   4.562   1.904
 4536SOL    HW114264   3.199   4.469   1.919
 4536SOL    HW214265   3.183   4.589   1.809
 4537SOL     OW14266   2.930   5.057   2.711
 4537SOL    HW114267   2.937   4.973   2.656
 4537SOL    HW214268   2.992   5.126   2.675
 4538SOL     OW14269   2.181   4.534   2.811
 4538SOL    HW114270   2.274   4.570   2.816
 4538SOL    HW214271   2.175   4.449   2.863
 4539SOL     OW14272   2.201   4.233   2.868
 4539SOL    HW114273   2.149   4.150   2.851
 4539SOL    HW214274   2.278   4.238   2.804
 4540SOL     OW14275   3.000   4.104   3.540
 4540SOL    HW114276   2.955   4.167   3.604
 4540SOL    HW214277   3.093   4.135   3.523
 4541SOL     OW14278   3.022   3.931   3.339
 4541SOL    HW114279   3.022   3.995   3.416
 4541SOL    HW214280   3.050   3.979   3.256
 4542SOL     OW14281   1.870   5.050   2.062
 4542SOL    HW114282   1.777   5.071   2.031
 4542SOL    HW214283   1.880   4.951   2.075
 4543SOL     OW14284   2.864   4.520   3.100
 4543SOL    HW114285   2.905   4.488   3.186
 4543SOL    HW214286   2.768   4.493   3.097
 4544SOL     OW14287   1.902   4.268   2.976
 4544SOL    HW114288   1.987   4.235   2.935
 4544SOL    HW214289   1.915   4.283   3.074
 4545SOL     OW14290   2.051   4.244   3.584
 4545SOL    HW114291   2.110   4.204   3.514
 4545SOL    HW214292   1.993   4.315   3.543
 4546SOL     OW14293   3.231   4.674   3.522
 4546SOL    HW114294   3.270   4.763   3.542
 4546SOL    HW214295   3.241   4.654   3.425
 4547SOL     OW14296   2.677   4.296   2.187
 4547SOL    HW114297   2.684   4.207   2.141
 4547SOL    HW214298   2.583   4.330   2.179
 4548SOL     OW14299   3.519   4.328   3.068
 4548SOL    HW114300   3.481   4.259   3.130
 4548SOL    HW214301   3.601   4.292   3.024
 4549SOL     OW14302   2.114   5.288   3.606
 4549SOL    HW114303   2.084   5.345   3.682
 4549SOL    HW214304   2.107   5.191   3.632
 4550SOL     OW14305   2.533   4.188   3.131
 4550SOL    HW114306   2.499   4.099   3.101
 4550SOL    HW214307   2.559   4.242   3.051
 4551SOL     OW14308   2.335   4.224   2.053
 4551SOL    HW114309   2.396   4.304   2.057
 4551SOL    HW214310   2.240   4.255   2.060
 4552SOL     OW14311   2.021   4.861   3.328
 4552SOL    HW114312   2.043   4.800   3.404
 4552SOL    HW214313   2.031   4.812   3.242
 4553SOL     OW14314   3.209   4.783   3.096
 4553SOL    HW114315   3.233   4.720   3.022
 4553SOL    HW214316   3.119   4.823   3.078
 4554SOL     OW14317   3.164   4.579   2.171
 4554SOL    HW114318   3.078   4.548   2.213
 4554SOL    HW214319   3.160   4.565   2.072
 4555SOL     OW14320   1.945   4.982   2.884
 4555SOL    HW114321   1.940   4.981   2.984
 4555SOL    HW214322   1.862   4.941   2.846
 4556SOL     OW14323   2.550   5.386   3.578
 4556SOL    HW114324   2.494   5.467   3.587
 4556SOL    HW214325   2.602   5.390   3.492
 4557SOL     OW14326   3.588   3.859   2.385
 4557SOL    HW114327   3.661   3.842   2.318
 4557SOL    HW214328   3.557   3.772   2.423
 4558SOL     OW14329   3.142   4.651   2.534
 4558SOL    HW114330   3.202   4.570   2.536
 4558SOL    HW214331   3.182   4.720   2.474
 4559SOL     OW14332   2.692   4.997   3.284
 4559SOL    HW114333   2.687   5.030   3.379
 4559SOL    HW214334   2.606   5.016   3.238
 4560SOL     OW14335   3.703   3.899   2.825
 4560SOL    HW114336   3.742   3.814   2.789
 4560SOL    HW214337   3.605   3.901   2.806
 4561SOL     OW14338   2.125   4.050   2.582
 4561SOL    HW114339   2.046   4.101   2.548
 4561SOL    HW214340   2.116   4.035   2.680
 4562SOL     OW14341   2.684   4.726   3.234
 4562SOL    HW114342   2.724   4.725   3.142
 4562SOL    HW214343   2.694   4.818   3.274
 4563SOL     OW14344   2.778   4.634   2.153
 4563SOL    HW114345   2.841   4.672   2.085
 4563SOL    HW214346   2.818   4.551   2.192
 4564SOL     OW14347   2.234   5.012   3.352
 4564SOL    HW114348   2.221   5.105   3.318
 4564SOL    HW214349   2.150   4.960   3.339
 4565SOL     OW14350   3.476   5.016   3.151
 4565SOL    HW114351   3.536   5.019   3.231
 4565SOL    HW214352   3.401   5.080   3.164
 4566SOL     OW14353   2.901   4.822   2.558
 4566SOL    HW114354   2.831   4.775   2.612
 4566SOL    HW214355   2.960   4.754   2.515
 4567SOL     OW14356   2.876   3.960   2.833
 4567SOL    HW114357   2.868   3.924   2.740
 4567SOL    HW214358   2.874   3.884   2.898
 4568SOL     OW14359   3.571   4.109   3.243
 4568SOL    HW114360   3.644   4.178   3.247
 4568SOL    HW214361   3.599   4.034   3.184
 4569SOL     OW14362   2.117   5.072   2.152
 4569SOL    HW114363   2.021   5.073   2.125
 4569SOL    HW214364   2.129   5.125   2.236
 4570SOL     OW14365   1.967   4.737   3.588
 4570SOL    HW114366   1.890   4.704   3.642
 4570SOL    HW214367   2.052   4.707   3.630
 4571SOL     OW14368   2.534   3.927   3.351
 4571SOL    HW114369   2.624   3.911   3.311
 4571SOL    HW214370   2.542   3.932   3.450
 4572SOL     OW14371   1.937   4.069   1.895
 4572SOL    HW114372   1.845   4.041   1.866
 4572SOL    HW214373   1.968   4.146   1.839
 4573SOL     OW14374   3.302   4.580   3.260
 4573SOL    HW114375   3.245   4.632   3.197
 4573SOL    HW214376   3.398   4.592   3.236
 4574SOL     OW14377   1.934   3.890   2.180
 4574SOL    HW114378   1.917   3.973   2.126
 4574SOL    HW214379   2.024   3.853   2.158
 4575SOL     OW14380   3.045   5.059   1.981
 4575SOL    HW114381   2.946   5.048   1.983
 4575SOL    HW214382   3.079   5.074   2.074
 4576SOL     OW14383   2.475   4.566   3.293
 4576SOL    HW114384   2.531   4.647   3.276
 4576SOL    HW214385   2.534   4.486   3.296
 4577SOL     OW14386   2.578   4.289   3.570
 4577SOL    HW114387   2.597   4.354   3.644
 4577SOL    HW214388   2.638   4.209   3.579
 4578SOL     OW14389   3.312   4.944   3.495
 4578SOL    HW114390   3.303   4.934   3.594
 4578SOL    HW214391   3.408   4.937   3.469
 4579SOL     OW14392   3.536   4.607   3.116
 4579SOL    HW114393   3.509   4.518   3.079
 4579SOL    HW214394   3.537   4.675   3.043
 4580SOL     OW14395   3.087   4.049   2.311
 4580SOL    HW114396   3.152   3.975   2.300
 4580SOL    HW214397   3.107   4.099   2.395
 4581SOL     OW14398   2.456   4.469   2.514
 4581SOL    HW114399   2.506   4.554   2.495
 4581SOL    HW214400   2.368   4.471   2.466
 4582SOL     OW14401   3.639   4.066   3.504
 4582SOL    HW114402   3.622   4.097   3.410
 4582SOL    HW214403   3.555   4.029   3.542
 4583SOL     OW14404   3.592   4.658   3.379
 4583SOL    HW114405   3.630   4.749   3.394
 4583SOL    HW214406   3.584   4.641   3.280
 4584SOL     OW14407   2.721   5.098   1.878
 4584SOL    HW114408   2.675   5.113   1.966
 4584SOL    HW214409   2.765   5.183   1.848
 4585SOL     OW14410   2.721   4.680   2.723
 4585SOL    HW114411   2.775   4.611   2.771
 4585SOL    HW214412   2.689   4.749   2.789
 4586SOL     OW14413   2.945   4.708   1.949
 4586SOL    HW114414   2.922   4.761   1.867
 4586SOL    HW214415   3.026   4.652   1.930
 4587SOL     OW14416   2.083   5.038   3.706
 4587SOL    HW114417   2.018   4.965   3.685
 4587SOL    HW214418   2.087   5.052   3.804
 4588SOL     OW14419   1.941   4.964   2.515
 4588SOL    HW114420   1.940   4.917   2.603
 4588SOL    HW214421   2.023   4.936   2.464
 4589SOL     OW14422   2.534   5.115   3.486
 4589SOL    HW114423   2.456   5.065   3.524
 4589SOL    HW214424   2.531   5.210   3.517
 4590SOL     OW14425   3.686   3.916   3.089
 4590SOL    HW114426   3.682   3.826   3.133
 4590SOL    HW214427   3.689   3.905   2.990
 4591SOL     OW14428   2.290   4.148   2.382
 4591SOL    HW114429   2.320   4.076   2.320
 4591SOL    HW214430   2.251   4.108   2.465
 4592SOL     OW14431   3.567   5.211   2.966
 4592SOL    HW114432   3.474   5.186   2.939
 4592SOL    HW214433   3.593   5.161   3.048
 4593SOL     OW14434   2.179   4.271   3.142
 4593SOL    HW114435   2.217   4.212   3.214
 4593SOL    HW214436   2.219   4.245   3.054
 4594SOL     OW14437   3.286   3.938   2.974
 4594SOL    HW114438   3.338   3.873   3.029
 4594SOL    HW214439   3.237   4.001   3.035
 4595SOL     OW14440   2.863   3.758   3.016
 4595SOL    HW114441   2.800   3.686   2.985
 4595SOL    HW214442   2.956   3.722   3.016
 4596SOL     OW14443   2.632   5.054   2.163
 4596SOL    HW114444   2.586   4.967   2.180
 4596SOL    HW214445   2.723   5.051   2.204
 4597SOL     OW14446   2.480   5.291   3.146
 4597SOL    HW114447   2.475   5.373   3.203
 4597SOL    HW214448   2.569   5.288   3.101
 4598SOL     OW14449   3.214   3.776   2.030
 4598SOL    HW114450   3.249   3.735   1.946
 4598SOL    HW214451   3.124   3.738   2.050
 4599SOL     OW14452   3.162   4.177   2.553
 4599SOL    HW114453   3.103   4.257   2.557
 4599SOL    HW214454   3.177   4.142   2.646
 4600SOL     OW14455   3.455   3.945   2.744
 4600SOL    HW114456   3.371   3.944   2.798
 4600SOL    HW214457   3.457   4.028   2.688
 4601SOL     OW14458   1.901   4.801   2.162
 4601SOL    HW114459   2.000   4.790   2.153
 4601SOL    HW214460   1.861   4.715   2.194
 4602SOL     OW14461   2.092   4.352   3.837
 4602SOL    HW114462   1.999   4.350   3.874
 4602SOL    HW214463   2.093   4.313   3.745
 4603SOL     OW14464   2.087   3.999   4.720
 4603SOL    HW114465   2.122   3.982   4.812
 4603SOL    HW214466   1.999   3.954   4.708
 4604SOL     OW14467   1.881   4.092   4.371
 4604SOL    HW114468   1.799   4.135   4.410
 4604SOL    HW214469   1.853   4.019   4.308
 4605SOL     OW14470   2.431   4.999   4.889
 4605SOL    HW114471   2.338   4.992   4.852
 4605SOL    HW214472   2.442   5.088   4.933
 4606SOL     OW14473   3.417   5.235   4.427
 4606SOL    HW114474   3.360   5.219   4.508
 4606SOL    HW214475   3.358   5.245   4.347
 4607SOL     OW14476   2.997   4.427   4.441
 4607SOL    HW114477   3.054   4.505   4.416
 4607SOL    HW214478   2.937   4.453   4.517
 4608SOL     OW14479   3.617   4.331   3.955
 4608SOL    HW114480   3.605   4.318   3.856
 4608SOL    HW214481   3.587   4.250   4.004
 4609SOL     OW14482   2.630   4.868   4.747
 4609SOL    HW114483   2.552   4.885   4.807
 4609SOL    HW214484   2.664   4.955   4.711
 4610SOL     OW14485   2.712   4.522   5.547
 4610SOL    HW114486   2.708   4.598   5.612
 4610SOL    HW214487   2.734   4.558   5.456
 4611SOL     OW14488   2.547   4.736   4.389
 4611SOL    HW114489   2.616   4.720   4.459
 4611SOL    HW214490   2.474   4.793   4.427
 4612SOL     OW14491   2.548   4.885   5.527
 4612SOL    HW114492   2.608   4.964   5.541
 4612SOL    HW214493   2.462   4.916   5.486
 4613SOL     OW14494   2.197   5.159   4.785
 4613SOL    HW114495   2.119   5.128   4.732
 4613SOL    HW214496   2.255   5.217   4.728
 4614SOL     OW14497   3.322   5.229   5.063
 4614SOL    HW114498   3.346   5.323   5.089
 4614SOL    HW214499   3.306   5.175   5.145
 4615SOL     OW14500   2.300   4.116   5.223
 4615SOL    HW114501   2.382   4.060   5.232
 4615SOL    HW214502   2.219   4.058   5.227
 4616SOL     OW14503   3.465   4.171   4.461
 4616SOL    HW114504   3.391   4.217   4.411
 4616SOL    HW214505   3.516   4.239   4.514
 4617SOL     OW14506   2.989   5.065   5.414
 4617SOL    HW114507   3.036   5.065   5.502
 4617SOL    HW214508   2.941   4.978   5.403
 4618SOL     OW14509   2.092   5.158   4.262
 4618SOL    HW114510   2.066   5.254   4.262
 4618SOL    HW214511   2.021   5.104   4.307
 4619SOL     OW14512   2.102   4.815   4.610
 4619SOL    HW114513   2.116   4.731   4.662
 4619SOL    HW214514   2.047   4.879   4.665
 4620SOL     OW14515   2.468   4.688   3.847
 4620SOL    HW114516   2.475   4.772   3.793
 4620SOL    HW214517   2.514   4.701   3.935
 4621SOL     OW14518   3.456   3.838   5.204
 4621SOL    HW114519   3.438   3.905   5.132
 4621SOL    HW214520   3.453   3.884   5.293
 4622SOL     OW14521   1.984   4.367   4.287
 4622SOL    HW114522   1.939   4.279   4.304
 4622SOL    HW214523   1.983   4.421   4.371
 4623SOL     OW14524   1.889   5.320   3.841
 4623SOL    HW114525   1.870   5.224   3.862
 4623SOL    HW214526   1.856   5.378   3.916
 4624SOL     OW14527   3.551   4.646   4.336
 4624SOL    HW114528   3.646   4.617   4.344
 4624SOL    HW214529   3.543   4.711   4.261
 4625SOL     OW14530   3.503   4.832   4.156
 4625SOL    HW114531   3.589   4.834   4.104
 4625SOL    HW214532   3.517   4.879   4.244
 4626SOL     OW14533   1.975   4.461   5.321
 4626SOL    HW114534   2.063   4.448   5.366
 4626SOL    HW214535   1.962   4.558   5.299
 4627SOL     OW14536   2.475   5.089   4.450
 4627SOL    HW114537   2.426   5.002   4.459
 4627SOL    HW214538   2.452   5.132   4.363
 4628SOL     OW14539   3.155   4.952   5.147
 4628SOL    HW114540   3.192   4.879   5.089
 4628SOL    HW214541   3.207   4.957   5.232
 4629SOL     OW14542   2.671   3.728   4.226
 4629SOL    HW114543   2.711   3.819   4.217
 4629SOL    HW214544   2.571   3.736   4.232
 4630SOL     OW14545   2.059   4.700   4.988
 4630SOL    HW114546   2.148   4.655   4.974
 4630SOL    HW214547   1.986   4.635   4.969
 4631SOL     OW14548   3.387   4.723   3.914
 4631SOL    HW114549   3.324   4.647   3.927
 4631SOL    HW214550   3.435   4.741   4.000
 4632SOL     OW14551   2.179   3.975   5.525
 4632SOL    HW114552   2.250   4.046   5.531
 4632SOL    HW214553   2.091   4.014   5.553
 4633SOL     OW14554   3.328   5.141   4.677
 4633SOL    HW114555   3.269   5.147   4.757
 4633SOL    HW214556   3.313   5.053   4.631
 4634SOL     OW14557   2.460   4.453   3.994
 4634SOL    HW114558   2.484   4.522   3.926
 4634SOL    HW214559   2.382   4.486   4.048
 4635SOL     OW14560   3.143   4.069   4.668
 4635SOL    HW114561   3.057   4.019   4.655
 4635SOL    HW214562   3.205   4.015   4.724
 4636SOL     OW14563   2.669   4.329   5.189
 4636SOL    HW114564   2.622   4.326   5.278
 4636SOL    HW214565   2.618   4.274   5.123
 4637SOL     OW14566   3.256   4.193   5.398
 4637SOL    HW114567   3.236   4.236   5.486
 4637SOL    HW214568   3.334   4.131   5.407
 4638SOL     OW14569   2.835   4.614   5.296
 4638SOL    HW114570   2.881   4.530   5.267
 4638SOL    HW214571   2.779   4.648   5.221
 4639SOL     OW14572   2.853   4.134   4.966
 4639SOL    HW114573   2.776   4.168   5.020
 4639SOL    HW214574   2.819   4.083   4.887
 4640SOL     OW14575   2.903   4.425   4.153
 4640SOL    HW114576   2.929   4.421   4.249
 4640SOL    HW214577   2.818   4.374   4.139
 4641SOL     OW14578   1.938   4.535   4.513
 4641SOL    HW114579   2.037   4.523   4.522
 4641SOL    HW214580   1.914   4.630   4.534
 4642SOL     OW14581   2.727   4.072   3.919
 4642SOL    HW114582   2.786   4.135   3.870
 4642SOL    HW214583   2.746   3.978   3.890
 4643SOL     OW14584   3.581   4.309   5.555
 4643SOL    HW114585   3.555   4.398   5.519
 4643SOL    HW214586   3.579   4.241   5.482
 4644SOL     OW14587   3.224   4.868   4.269
 4644SOL    HW114588   3.307   4.839   4.221
 4644SOL    HW214589   3.175   4.935   4.213
 4645SOL     OW14590   2.412   3.920   4.609
 4645SOL    HW114591   2.407   3.915   4.709
 4645SOL    HW214592   2.414   4.016   4.580
 4646SOL     OW14593   2.870   5.180   4.201
 4646SOL    HW114594   2.824   5.252   4.149
 4646SOL    HW214595   2.866   5.200   4.299
 4647SOL     OW14596   3.657   4.790   4.597
 4647SOL    HW114597   3.595   4.775   4.521
 4647SOL    HW214598   3.605   4.801   4.682
 4648SOL     OW14599   3.089   5.274   5.230
 4648SOL    HW114600   3.095   5.197   5.294
 4648SOL    HW214601   3.037   5.248   5.150
 4649SOL     OW14602   2.183   4.667   3.966
 4649SOL    HW114603   2.265   4.706   3.924
 4649SOL    HW214604   2.156   4.585   3.917
 4650SOL     OW14605   3.320   4.459   4.452
 4650SOL    HW114606   3.315   4.394   4.527
 4650SOL    HW214607   3.400   4.518   4.465
 4651SOL     OW14608   2.323   4.990   5.451
 4651SOL    HW114609   2.273   4.991   5.365
 4651SOL    HW214610   2.260   4.972   5.527
 4652SOL     OW14611   2.973   5.500   3.961
 4652SOL    HW114612   2.913   5.438   4.011
 4652SOL    HW214613   3.004   5.456   3.876
 4653SOL     OW14614   2.064   4.009   5.222
 4653SOL    HW114615   1.984   4.069   5.209
 4653SOL    HW214616   2.054   3.960   5.308
 4654SOL     OW14617   3.494   5.101   3.805
 4654SOL    HW114618   3.462   5.195   3.795
 4654SOL    HW214619   3.418   5.038   3.793
 4655SOL     OW14620   3.262   3.831   4.150
 4655SOL    HW114621   3.238   3.794   4.060
 4655SOL    HW214622   3.361   3.847   4.154
 4656SOL     OW14623   2.244   4.424   4.204
 4656SOL    HW114624   2.289   4.334   4.201
 4656SOL    HW214625   2.150   4.413   4.237
 4657SOL     OW14626   3.409   3.946   5.453
 4657SOL    HW114627   3.404   3.983   5.545
 4657SOL    HW214628   3.337   3.877   5.441
 4658SOL     OW14629   2.476   3.846   3.841
 4658SOL    HW114630   2.574   3.824   3.848
 4658SOL    HW214631   2.445   3.829   3.748
 4659SOL     OW14632   2.643   3.988   5.473
 4659SOL    HW114633   2.710   3.927   5.516
 4659SOL    HW214634   2.570   4.007   5.538
 4660SOL     OW14635   3.213   4.314   5.157
 4660SOL    HW114636   3.241   4.271   5.242
 4660SOL    HW214637   3.238   4.410   5.158
 4661SOL     OW14638   2.665   5.126   4.648
 4661SOL    HW114639   2.755   5.140   4.606
 4661SOL    HW214640   2.594   5.128   4.577
 4662SOL     OW14641   2.784   4.227   4.623
 4662SOL    HW114642   2.759   4.218   4.527
 4662SOL    HW214643   2.832   4.145   4.654
 4663SOL     OW14644   2.401   3.788   4.236
 4663SOL    HW114645   2.320   3.789   4.294
 4663SOL    HW214646   2.404   3.871   4.181
 4664SOL     OW14647   3.296   4.912   3.765
 4664SOL    HW114648   3.328   4.836   3.822
 4664SOL    HW214649   3.204   4.939   3.795
 4665SOL     OW14650   2.159   3.759   3.895
 4665SOL    HW114651   2.208   3.843   3.874
 4665SOL    HW214652   2.221   3.694   3.940
 4666SOL     OW14653   2.797   3.960   4.204
 4666SOL    HW114654   2.749   4.001   4.126
 4666SOL    HW214655   2.896   3.958   4.185
 4667SOL     OW14656   2.938   4.407   5.188
 4667SOL    HW114657   2.858   4.346   5.191
 4667SOL    HW214658   3.019   4.354   5.164
 4668SOL     OW14659   3.089   5.294   4.517
 4668SOL    HW114660   3.110   5.368   4.452
 4668SOL    HW214661   3.157   5.294   4.590
 4669SOL     OW14662   2.321   4.876   4.465
 4669SOL    HW114663   2.250   4.849   4.530
 4669SOL    HW214664   2.295   4.848   4.372
 4670SOL     OW14665   2.894   4.273   3.740
 4670SOL    HW114666   2.853   4.355   3.701
 4670SOL    HW214667   2.958   4.299   3.813
 4671SOL     OW14668   1.940   4.280   5.110
 4671SOL    HW114669   2.032   4.279   5.069
 4671SOL    HW214670   1.934   4.354   5.177
 4672SOL     OW14671   2.423   3.946   4.871
 4672SOL    HW114672   2.461   3.862   4.908
 4672SOL    HW214673   2.335   3.965   4.915
 4673SOL     OW14674   2.728   4.178   4.366
 4673SOL    HW114675   2.696   4.250   4.304
 4673SOL    HW214676   2.752   4.097   4.313
 4674SOL     OW14677   2.879   3.763   4.477
 4674SOL    HW114678   2.807   3.768   4.408
 4674SOL    HW214679   2.855   3.694   4.546
 4675SOL     OW14680   3.291   4.897   4.591
 4675SOL    HW114681   3.236   4.813   4.584
 4675SOL    HW214682   3.317   4.926   4.499
 4676SOL     OW14683   3.328   4.314   4.716
 4676SOL    HW114684   3.298   4.219   4.723
 4676SOL    HW214685   3.401   4.330   4.782
 4677SOL     OW14686   3.719   4.557   4.101
 4677SOL    HW114687   3.761   4.493   4.165
 4677SOL    HW214688   3.681   4.506   4.023
 4678SOL     OW14689   2.350   5.109   3.898
 4678SOL    HW114690   2.263   5.094   3.945
 4678SOL    HW214691   2.333   5.135   3.803
 4679SOL     OW14692   3.526   5.004   4.381
 4679SOL    HW114693   3.625   5.012   4.395
 4679SOL    HW214694   3.481   5.088   4.412
 4680SOL     OW14695   3.252   4.299   3.802
 4680SOL    HW114696   3.198   4.278   3.883
 4680SOL    HW214697   3.343   4.258   3.811
 4681SOL     OW14698   2.389   3.980   4.052
 4681SOL    HW114699   2.416   3.921   3.977
 4681SOL    HW214700   2.389   4.075   4.021
 4682SOL     OW14701   3.616   4.947   5.312
 4682SOL    HW114702   3.707   4.908   5.299
 4682SOL    HW214703   3.624   5.043   5.336
 4683SOL     OW14704   2.926   5.071   5.064
 4683SOL    HW114705   2.846   5.048   5.119
 4683SOL    HW214706   3.009   5.045   5.113
 4684SOL     OW14707   2.973   4.919   4.824
 4684SOL    HW114708   2.933   4.963   4.905
 4684SOL    HW214709   2.932   4.956   4.741
 4685SOL     OW14710   3.500   4.823   4.803
 4685SOL    HW114711   3.505   4.904   4.862
 4685SOL    HW214712   3.414   4.825   4.752
 4686SOL     OW14713   2.777   3.813   5.126
 4686SOL    HW114714   2.802   3.793   5.031
 4686SOL    HW214715   2.849   3.869   5.168
 4687SOL     OW14716   2.842   4.840   5.443
 4687SOL    HW114717   2.743   4.846   5.453
 4687SOL    HW214718   2.865   4.760   5.387
 4688SOL     OW14719   2.567   4.774   4.092
 4688SOL    HW114720   2.553   4.781   4.191
 4688SOL    HW214721   2.651   4.723   4.074
 4689SOL     OW14722   2.272   4.537   4.975
 4689SOL    HW114723   2.358   4.549   5.025
 4689SOL    HW214724   2.230   4.450   5.002
 4690SOL     OW14725   3.136   4.110   4.986
 4690SOL    HW114726   3.157   4.184   5.050
 4690SOL    HW214727   3.047   4.127   4.943
 4691SOL     OW14728   2.229   4.824   4.225
 4691SOL    HW114729   2.222   4.907   4.169
 4691SOL    HW214730   2.233   4.744   4.165
 4692SOL     OW14731   2.428   4.261   4.589
 4692SOL    HW114732   2.440   4.327   4.515
 4692SOL    HW214733   2.474   4.295   4.672
 4693SOL     OW14734   3.114   5.072   4.112
 4693SOL    HW114735   3.164   5.149   4.152
 4693SOL    HW214736   3.019   5.074   4.144
 4694SOL     OW14737   3.134   5.169   4.866
 4694SOL    HW114738   3.181   5.182   4.953
 4694SOL    HW214739   3.068   5.095   4.875
 4695SOL     OW14740   3.444   4.363   4.196
 4695SOL    HW114741   3.413   4.424   4.269
 4695SOL    HW214742   3.494   4.415   4.127
 4696SOL     OW14743   2.216   5.234   5.053
 4696SOL    HW114744   2.195   5.190   4.966
 4696SOL    HW214745   2.313   5.260   5.056
 4697SOL     OW14746   2.264   4.475   5.322
 4697SOL    HW114747   2.332   4.530   5.275
 4697SOL    HW214748   2.304   4.387   5.349
 4698SOL     OW14749   3.449   4.503   5.394
 4698SOL    HW114750   3.357   4.541   5.389
 4698SOL    HW214751   3.509   4.550   5.329
 4699SOL     OW14752   2.875   3.829   5.494
 4699SOL    HW114753   2.881   3.914   5.442
 4699SOL    HW214754   2.907   3.753   5.437
 4700SOL     OW14755   2.366   3.774   5.464
 4700SOL    HW114756   2.324   3.717   5.394
 4700SOL    HW214757   2.300   3.843   5.496
 4701SOL     OW14758   2.435   4.594   4.753
 4701SOL    HW114759   2.479   4.683   4.744
 4701SOL    HW214760   2.372   4.594   4.830
 4702SOL     OW14761   3.222   4.586   4.769
 4702SOL    HW114762   3.147   4.586   4.703
 4702SOL    HW214763   3.259   4.494   4.778
 4703SOL     OW14764   3.071   4.249   3.999
 4703SOL    HW114765   3.084   4.165   4.053
 4703SOL    HW214766   3.042   4.323   4.059
 4704SOL     OW14767   2.169   3.937   4.955
 4704SOL    HW114768   2.146   3.974   5.045
 4704SOL    HW214769   2.139   3.842   4.949
 4705SOL     OW14770   1.899   5.034   5.006
 4705SOL    HW114771   1.952   4.985   5.074
 4705SOL    HW214772   1.921   5.132   5.011
 4706SOL     OW14773   2.594   4.358   4.788
 4706SOL    HW114774   2.653   4.332   4.712
 4706SOL    HW214775   2.566   4.454   4.777
 4707SOL     OW14776   3.590   4.659   5.578
 4707SOL    HW114777   3.544   4.652   5.489
 4707SOL    HW214778   3.528   4.703   5.644
 4708SOL     OW14779   2.169   3.787   4.342
 4708SOL    HW114780   2.158   3.881   4.375
 4708SOL    HW214781   2.164   3.724   4.419
 4709SOL     OW14782   3.484   4.091   4.098
 4709SOL    HW114783   3.486   4.015   4.162
 4709SOL    HW214784   3.436   4.168   4.138
 4710SOL     OW14785   2.885   4.490   4.690
 4710SOL    HW114786   2.900   4.511   4.786
 4710SOL    HW214787   2.855   4.395   4.681
 4711SOL     OW14788   3.721   5.242   5.329
 4711SOL    HW114789   3.735   5.269   5.234
 4711SOL    HW214790   3.804   5.264   5.382
 4712SOL     OW14791   2.212   4.622   5.528
 4712SOL    HW114792   2.288   4.666   5.576
 4712SOL    HW214793   2.247   4.575   5.446
 4713SOL     OW14794   3.402   3.998   3.849
 4713SOL    HW114795   3.341   3.923   3.872
 4713SOL    HW214796   3.424   4.050   3.932
 4714SOL     OW14797   3.165   4.562   3.766
 4714SOL    HW114798   3.199   4.469   3.781
 4714SOL    HW214799   3.183   4.589   3.671
 4715SOL     OW14800   2.930   5.057   4.573
 4715SOL    HW114801   2.937   4.973   4.518
 4715SOL    HW214802   2.992   5.126   4.537
 4716SOL     OW14803   2.181   4.534   4.673
 4716SOL    HW114804   2.274   4.570   4.678
 4716SOL    HW214805   2.175   4.449   4.725
 4717SOL     OW14806   2.201   4.233   4.730
 4717SOL    HW114807   2.149   4.150   4.713
 4717SOL    HW214808   2.278   4.238   4.666
 4718SOL     OW14809   3.000   4.104   5.402
 4718SOL    HW114810   2.955   4.167   5.466
 4718SOL    HW214811   3.093   4.135   5.385
 4719SOL     OW14812   3.022   3.931   5.201
 4719SOL    HW114813   3.022   3.995   5.278
 4719SOL    HW214814   3.050   3.979   5.118
 4720SOL     OW14815   1.870   5.050   3.924
 4720SOL    HW114816   1.777   5.071   3.893
 4720SOL    HW214817   1.880   4.951   3.937
 4721SOL     OW14818   2.864   4.520   4.962
 4721SOL    HW114819   2.905   4.488   5.048
 4721SOL    HW214820   2.768   4.493   4.959
 4722SOL     OW14821   1.902   4.268   4.838
 4722SOL    HW114822   1.987   4.235   4.797
 4722SOL    HW214823   1.915   4.283   4.936
 4723SOL     OW14824   2.051   4.244   5.446
 4723SOL    HW114825   2.110   4.204   5.376
 4723SOL    HW214826   1.993   4.315   5.405
 4724SOL     OW14827   3.231   4.674   5.384
 4724SOL    HW114828   3.270   4.763   5.404
 4724SOL    HW214829   3.241   4.654   5.287
 4725SOL     OW14830   2.677   4.296   4.049
 4725SOL    HW114831   2.684   4.207   4.003
 4725SOL    HW214832   2.583   4.330   4.041
 4726SOL     OW14833   3.519   4.328   4.930
 4726SOL    HW114834   3.481   4.259   4.992
 4726SOL    HW214835   3.601   4.292   4.886
 4727SOL     OW14836   2.114   5.288   5.468
 4727SOL    HW114837   2.084   5.345   5.544
 4727SOL    HW214838   2.107   5.191   5.494
 4728SOL     OW14839   2.533   4.188   4.993
 4728SOL    HW114840   2.499   4.099   4.963
 4728SOL    HW214841   2.559   4.242   4.913
 4729SOL     OW14842   2.335   4.224   3.915
 4729SOL    HW114843   2.396   4.304   3.919
 4729SOL    HW214844   2.240   4.255   3.922
 4730SOL     OW14845   2.021   4.861   5.190
 4730SOL    HW114846   2.043   4.800   5.266
 4730SOL    HW214847   2.031   4.812   5.104
 4731SOL     OW14848   3.209   4.783   4.958
 4731SOL    HW114849   3.233   4.720   4.884
 4731SOL    HW214850   3.119   4.823   4.940
 4732SOL     OW14851   3.164   4.579   4.033
 4732SOL    HW114852   3.078   4.548   4.075
 4732SOL    HW214853   3.160   4.565   3.934
 4733SOL     OW14854   1.945   4.982   4.746
 4733SOL    HW114855   1.940   4.981   4.846
 4733SOL    HW214856   1.862   4.941   4.708
 4734SOL     OW14857   2.550   5.386   5.440
 4734SOL    HW114858   2.494   5.467   5.449
 4734SOL    HW214859   2.602   5.390   5.354
 4735SOL     OW14860   3.588   3.859   4.247
 4735SOL    HW114861   3.661   3.842   4.180
 4735SOL    HW214862   3.557   3.772   4.285
 4736SOL     OW14863   3.142   4.651   4.396
 4736SOL    HW114864   3.202   4.570   4.398
 4736SOL    HW214865   3.182   4.720   4.336
 4737SOL     OW14866   2.692   4.997   5.146
 4737SOL    HW114867   2.687   5.030   5.241
 4737SOL    HW214868   2.606   5.016   5.100
 4738SOL     OW14869   3.703   3.899   4.687
 4738SOL    HW114870   3.742   3.814   4.651
 4738SOL    HW214871   3.605   3.901   4.668
 4739SOL     OW14872   2.125   4.050   4.444
 4739SOL    HW114873   2.046   4.101   4.410
 4739SOL    HW214874   2.116   4.035   4.542
 4740SOL     OW14875   2.684   4.726   5.096
 4740SOL    HW114876   2.724   4.725   5.004
 4740SOL    HW214877   2.694   4.818   5.136
 4741SOL     OW14878   2.778   4.634   4.015
 4741SOL    HW114879   2.841   4.672   3.947
 4741SOL    HW214880   2.818   4.551   4.054
 4742SOL     OW14881   2.234   5.012   5.214
 4742SOL    HW114882   2.221   5.105   5.180
 4742SOL    HW214883   2.150   4.960   5.201
 4743SOL     OW14884   3.476   5.016   5.013
 4743SOL    HW114885   3.536   5.019   5.093
 4743SOL    HW214886   3.401   5.080   5.026
 4744SOL     OW14887   2.901   4.822   4.420
 4744SOL    HW114888   2.831   4.775   4.474
 4744SOL    HW214889   2.960   4.754   4.377
 4745SOL     OW14890   2.876   3.960   4.695
 4745SOL    HW114891   2.868   3.924   4.602
 4745SOL    HW214892   2.874   3.884   4.760
 4746SOL     OW14893   3.571   4.109   5.105
 4746SOL    HW114894   3.644   4.178   5.109
 4746SOL    HW214895   3.599   4.034   5.046
 4747SOL     OW14896   2.117   5.072   4.014
 4747SOL    HW114897   2.021   5.073   3.987
 4747SOL    HW214898   2.129   5.125   4.098
 4748SOL     OW14899   1.967   4.737   5.450
 4748SOL    HW114900   1.890   4.704   5.504
 4748SOL    HW214901   2.052   4.707   5.492
 4749SOL     OW14902   2.534   3.927   5.213
 4749SOL    HW114903   2.624   3.911   5.173
 4749SOL    HW214904   2.542   3.932   5.312
 4750SOL     OW14905   1.937   4.069   3.757
 4750SOL    HW114906   1.845   4.041   3.728
 4750SOL    HW214907   1.968   4.146   3.701
 4751SOL     OW14908   3.302   4.580   5.122
 4751SOL    HW114909   3.245   4.632   5.059
 4751SOL    HW214910   3.398   4.592   5.098
 4752SOL     OW14911   1.934   3.890   4.042
 4752SOL    HW114912   1.917   3.973   3.988
 4752SOL    HW214913   2.024   3.853   4.020
 4753SOL     OW14914   3.045   5.059   3.843
 4753SOL    HW114915   2.946   5.048   3.845
 4753SOL    HW214916   3.079   5.074   3.936
 4754SOL     OW14917   2.475   4.566   5.155
 4754SOL    HW114918   2.531   4.647   5.138
 4754SOL    HW214919   2.534   4.486   5.158
 4755SOL     OW14920   2.578   4.289   5.432
 4755SOL    HW114921   2.597   4.354   5.506
 4755SOL    HW214922   2.638   4.209   5.441
 4756SOL     OW14923   3.312   4.944   5.357
 4756SOL    HW114924   3.303   4.934   5.456
 4756SOL    HW214925   3.408   4.937   5.331
 4757SOL     OW14926   3.536   4.607   4.978
 4757SOL    HW114927   3.509   4.518   4.941
 4757SOL    HW214928   3.537   4.675   4.905
 4758SOL     OW14929   3.087   4.049   4.173
 4758SOL    HW114930   3.152   3.975   4.162
 4758SOL    HW214931   3.107   4.099   4.257
 4759SOL     OW14932   2.456   4.469   4.376
 4759SOL    HW114933   2.506   4.554   4.357
 4759SOL    HW214934   2.368   4.471   4.328
 4760SOL     OW14935   3.639   4.066   5.366
 4760SOL    HW114936   3.622   4.097   5.272
 4760SOL    HW214937   3.555   4.029   5.404
 4761SOL     OW14938   3.592   4.658   5.241
 4761SOL    HW114939   3.630   4.749   5.256
 4761SOL    HW214940   3.584   4.641   5.142
 4762SOL     OW14941   2.721   5.098   3.740
 4762SOL    HW114942   2.675   5.113   3.828
 4762SOL    HW214943   2.765   5.183   3.710
 4763SOL     OW14944   2.721   4.680   4.585
 4763SOL    HW114945   2.775   4.611   4.633
 4763SOL    HW214946   2.689   4.749   4.651
 4764SOL     OW14947   2.945   4.708   3.811
 4764SOL    HW114948   2.922   4.761   3.729
 4764SOL    HW214949   3.026   4.652   3.792
 4765SOL     OW14950   2.083   5.038   5.568
 4765SOL    HW114951   2.018   4.965   5.547
 4765SOL    HW214952   2.087   5.052   5.666
 4766SOL     OW14953   1.941   4.964   4.377
 4766SOL    HW114954   1.940   4.917   4.465
 4766SOL    HW214955   2.023   4.936   4.326
 4767SOL     OW14956   2.534   5.115   5.348
 4767SOL    HW114957   2.456   5.065   5.386
 4767SOL    HW214958   2.531   5.210   5.379
 4768SOL     OW14959   3.686   3.916   4.951
 4768SOL    HW114960   3.682   3.826   4.995
 4768SOL    HW214961   3.689   3.905   4.852
 4769SOL     OW14962   2.290   4.148   4.244
 4769SOL    HW114963   2.320   4.076   4.182
 4769SOL    HW214964   2.251   4.108   4.327
 4770SOL     OW14965   3.567   5.211   4.828
 4770SOL    HW114966   3.474   5.186   4.801
 4770SOL    HW214967   3.593   5.161   4.910
 4771SOL     OW14968   2.179   4.271   5.004
 4771SOL    HW114969   2.217   4.212   5.076
 4771SOL    HW214970   2.219   4.245   4.916
 4772SOL     OW14971   3.286   3.938   4.836
 4772SOL    HW114972   3.338   3.873   4.891
 4772SOL    HW214973   3.237   4.001   4.897
 4773SOL     OW14974   2.863   3.758   4.878
 4773SOL    HW114975   2.800   3.686   4.847
 4773SOL    HW214976   2.956   3.722   4.878
 4774SOL     OW14977   2.632   5.054   4.025
 4774SOL    HW114978   2.586   4.967   4.042
 4774SOL    HW214979   2.723   5.051   4.066
 4775SOL     OW14980   2.480   5.291   5.008
 4775SOL    HW114981   2.475   5.373   5.065
 4775SOL    HW214982   2.569   5.288   4.963
 4776SOL     OW14983   3.214   3.776   3.892
 4776SOL    HW114984   3.249   3.735   3.808
 4776SOL    HW214985   3.124   3.738   3.912
 4777SOL     OW14986   3.162   4.177   4.415
 4777SOL    HW114987   3.103   4.257   4.419
 4777SOL    HW214988   3.177   4.142   4.508
 4778SOL     OW14989   3.455   3.945   4.606
 4778SOL    HW114990   3.371   3.944   4.660
 4778SOL    HW214991   3.457   4.028   4.550
 4779SOL     OW14992   1.901   4.801   4.024
 4779SOL    HW114993   2.000   4.790   4.015
 4779SOL    HW214994   1.861   4.715   4.056
 4780SOL     OW14995   2.092   4.352   5.699
 4780SOL    HW114996   1.999   4.350   5.736
 4780SOL    HW214997   2.093   4.313   5.607
 4781SOL     OW14998   2.087   3.999   6.582
 4781SOL    HW114999   2.122   3.982   6.674
 4781SOL    HW215000   1.999   3.954   6.570
 4782SOL     OW15001   1.881   4.092   6.233
 4782SOL    HW115002   1.799   4.135   6.272
 4782SOL    HW215003   1.853   4.019   6.170
 4783SOL     OW15004   2.431   4.999   6.751
 4783SOL    HW115005   2.338   4.992   6.714
 4783SOL    HW215006   2.442   5.088   6.795
 4784SOL     OW15007   3.417   5.235   6.289
 4784SOL    HW115008   3.360   5.219   6.370
 4784SOL    HW215009   3.358   5.245   6.209
 4785SOL     OW15010   2.997   4.427   6.303
 4785SOL    HW115011   3.054   4.505   6.278
 4785SOL    HW215012   2.937   4.453   6.379
 4786SOL     OW15013   3.617   4.331   5.817
 4786SOL    HW115014   3.605   4.318   5.718
 4786SOL    HW215015   3.587   4.250   5.866
 4787SOL     OW15016   2.630   4.868   6.609
 4787SOL    HW115017   2.552   4.885   6.669
 4787SOL    HW215018   2.664   4.955   6.573
 4788SOL     OW15019   2.712   4.522   7.409
 4788SOL    HW115020   2.708   4.598   7.474
 4788SOL    HW215021   2.734   4.558   7.318
 4789SOL     OW15022   2.547   4.736   6.251
 4789SOL    HW115023   2.616   4.720   6.321
 4789SOL    HW215024   2.474   4.793   6.289
 4790SOL     OW15025   2.548   4.885   7.389
 4790SOL    HW115026   2.608   4.964   7.403
 4790SOL    HW215027   2.462   4.916   7.348
 4791SOL     OW15028   2.197   5.159   6.647
 4791SOL    HW115029   2.119   5.128   6.594
 4791SOL    HW215030   2.255   5.217   6.590
 4792SOL     OW15031   3.322   5.229   6.925
 4792SOL    HW115032   3.346   5.323   6.951
 4792SOL    HW215033   3.306   5.175   7.007
 4793SOL     OW15034   2.300   4.116   7.085
 4793SOL    HW115035   2.382   4.060   7.094
 4793SOL    HW215036   2.219   4.058   7.089
 4794SOL     OW15037   3.465   4.171   6.323
 4794SOL    HW115038   3.391   4.217   6.273
 4794SOL    HW215039   3.516   4.239   6.376
 4795SOL     OW15040   2.989   5.065   7.276
 4795SOL    HW115041   3.036   5.065   7.364
 4795SOL    HW215042   2.941   4.978   7.265
 4796SOL     OW15043   2.092   5.158   6.124
 4796SOL    HW115044   2.066   5.254   6.124
 4796SOL    HW215045   2.021   5.104   6.169
 4797SOL     OW15046   2.102   4.815   6.472
 4797SOL    HW115047   2.116   4.731   6.524
 4797SOL    HW215048   2.047   4.879   6.527
 4798SOL     OW15049   2.468   4.688   5.709
 4798SOL    HW115050   2.475   4.772   5.655
 4798SOL    HW215051   2.514   4.701   5.797
 4799SOL     OW15052   3.456   3.838   7.066
 4799SOL    HW115053   3.438   3.905   6.994
 4799SOL    HW215054   3.453   3.884   7.155
 4800SOL     OW15055   1.984   4.367   6.149
 4800SOL    HW115056   1.939   4.279   6.166
 4800SOL    HW215057   1.983   4.421   6.233
 4801SOL     OW15058   1.889   5.320   5.703
 4801SOL    HW115059   1.870   5.224   5.724
 4801SOL    HW215060   1.856   5.378   5.778
 4802SOL     OW15061   3.551   4.646   6.198
 4802SOL    HW115062   3.646   4.617   6.206
 4802SOL    HW215063   3.543   4.711   6.123
 4803SOL     OW15064   3.503   4.832   6.018
 4803SOL    HW115065   3.589   4.834   5.966
 4803SOL    HW215066   3.517   4.879   6.106
 4804SOL     OW15067   1.975   4.461   7.183
 4804SOL    HW115068   2.063   4.448   7.228
 4804SOL    HW215069   1.962   4.558   7.161
 4805SOL     OW15070   2.475   5.089   6.312
 4805SOL    HW115071   2.426   5.002   6.321
 4805SOL    HW215072   2.452   5.132   6.225
 4806SOL     OW15073   3.155   4.952   7.009
 4806SOL    HW115074   3.192   4.879   6.951
 4806SOL    HW215075   3.207   4.957   7.094
 4807SOL     OW15076   2.671   3.728   6.088
 4807SOL    HW115077   2.711   3.819   6.079
 4807SOL    HW215078   2.571   3.736   6.094
 4808SOL     OW15079   2.059   4.700   6.850
 4808SOL    HW115080   2.148   4.655   6.836
 4808SOL    HW215081   1.986   4.635   6.831
 4809SOL     OW15082   3.387   4.723   5.776
 4809SOL    HW115083   3.324   4.647   5.789
 4809SOL    HW215084   3.435   4.741   5.862
 4810SOL     OW15085   2.179   3.975   7.387
 4810SOL    HW115086   2.250   4.046   7.393
 4810SOL    HW215087   2.091   4.014   7.415
 4811SOL     OW15088   3.328   5.141   6.539
 4811SOL    HW115089   3.269   5.147   6.619
 4811SOL    HW215090   3.313   5.053   6.493
 4812SOL     OW15091   2.460   4.453   5.856
 4812SOL    HW115092   2.484   4.522   5.788
 4812SOL    HW215093   2.382   4.486   5.910
 4813SOL     OW15094   3.143   4.069   6.530
 4813SOL    HW115095   3.057   4.019   6.517
 4813SOL    HW215096   3.205   4.015   6.586
 4814SOL     OW15097   2.669   4.329   7.051
 4814SOL    HW115098   2.622   4.326   7.140
 4814SOL    HW215099   2.618   4.274   6.985
 4815SOL     OW15100   3.256   4.193   7.260
 4815SOL    HW115101   3.236   4.236   7.348
 4815SOL    HW215102   3.334   4.131   7.269
 4816SOL     OW15103   2.835   4.614   7.158
 4816SOL    HW115104   2.881   4.530   7.129
 4816SOL    HW215105   2.779   4.648   7.083
 4817SOL     OW15106   2.853   4.134   6.828
 4817SOL    HW115107   2.776   4.168   6.882
 4817SOL    HW215108   2.819   4.083   6.749
 4818SOL     OW15109   2.903   4.425   6.015
 4818SOL    HW115110   2.929   4.421   6.111
 4818SOL    HW215111   2.818   4.374   6.001
 4819SOL     OW15112   1.938   4.535   6.375
 4819SOL    HW115113   2.037   4.523   6.384
 4819SOL    HW215114   1.914   4.630   6.396
 4820SOL     OW15115   2.727   4.072   5.781
 4820SOL    HW115116   2.786   4.135   5.732
 4820SOL    HW215117   2.746   3.978   5.752
 4821SOL     OW15118   3.581   4.309   7.417
 4821SOL    HW115119   3.555   4.398   7.381
 4821SOL    HW215120   3.579   4.241   7.344
 4822SOL     OW15121   3.224   4.868   6.131
 4822SOL    HW115122   3.307   4.839   6.083
 4822SOL    HW215123   3.175   4.935   6.075
 4823SOL     OW15124   2.412   3.920   6.471
 4823SOL    HW115125   2.407   3.915   6.571
 4823SOL    HW215126   2.414   4.016   6.442
 4824SOL     OW15127   2.870   5.180   6.063
 4824SOL    HW115128   2.824   5.252   6.011
 4824SOL    HW215129   2.866   5.200   6.161
 4825SOL     OW15130   3.657   4.790   6.459
 4825SOL    HW115131   3.595   4.775   6.383
 4825SOL    HW215132   3.605   4.801   6.544
 4826SOL     OW15133   3.089   5.274   7.092
 4826SOL    HW115134   3.095   5.197   7.156
 4826SOL    HW215135   3.037   5.248   7.012
 4827SOL     OW15136   2.183   4.667   5.828
 4827SOL    HW115137   2.265   4.706   5.786
 4827SOL    HW215138   2.156   4.585   5.779
 4828SOL     OW15139   3.320   4.459   6.314
 4828SOL    HW115140   3.315   4.394   6.389
 4828SOL    HW215141   3.400   4.518   6.327
 4829SOL     OW15142   2.323   4.990   7.313
 4829SOL    HW115143   2.273   4.991   7.227
 4829SOL    HW215144   2.260   4.972   7.389
 4830SOL     OW15145   2.973   5.500   5.823
 4830SOL    HW115146   2.913   5.438   5.873
 4830SOL    HW215147   3.004   5.456   5.738
 4831SOL     OW15148   2.064   4.009   7.084
 4831SOL    HW115149   1.984   4.069   7.071
 4831SOL    HW215150   2.054   3.960   7.170
 4832SOL     OW15151   3.494   5.101   5.667
 4832SOL    HW115152   3.462   5.195   5.657
 4832SOL    HW215153   3.418   5.038   5.655
 4833SOL     OW15154   3.262   3.831   6.012
 4833SOL    HW115155   3.238   3.794   5.922
 4833SOL    HW215156   3.361   3.847   6.016
 4834SOL     OW15157   2.244   4.424   6.066
 4834SOL    HW115158   2.289   4.334   6.063
 4834SOL    HW215159   2.150   4.413   6.099
 4835SOL     OW15160   3.409   3.946   7.315
 4835SOL    HW115161   3.404   3.983   7.407
 4835SOL    HW215162   3.337   3.877   7.303
 4836SOL     OW15163   2.476   3.846   5.703
 4836SOL    HW115164   2.574   3.824   5.710
 4836SOL    HW215165   2.445   3.829   5.610
 4837SOL     OW15166   2.643   3.988   7.335
 4837SOL    HW115167   2.710   3.927   7.378
 4837SOL    HW215168   2.570   4.007   7.400
 4838SOL     OW15169   3.213   4.314   7.019
 4838SOL    HW115170   3.241   4.271   7.104
 4838SOL    HW215171   3.238   4.410   7.020
 4839SOL     OW15172   2.665   5.126   6.510
 4839SOL    HW115173   2.755   5.140   6.468
 4839SOL    HW215174   2.594   5.128   6.439
 4840SOL     OW15175   2.784   4.227   6.485
 4840SOL    HW115176   2.759   4.218   6.389
 4840SOL    HW215177   2.832   4.145   6.516
 4841SOL     OW15178   2.401   3.788   6.098
 4841SOL    HW115179   2.320   3.789   6.156
 4841SOL    HW215180   2.404   3.871   6.043
 4842SOL     OW15181   3.296   4.912   5.627
 4842SOL    HW115182   3.328   4.836   5.684
 4842SOL    HW215183   3.204   4.939   5.657
 4843SOL     OW15184   2.159   3.759   5.757
 4843SOL    HW115185   2.208   3.843   5.736
 4843SOL    HW215186   2.221   3.694   5.802
 4844SOL     OW15187   2.797   3.960   6.066
 4844SOL    HW115188   2.749   4.001   5.988
 4844SOL    HW215189   2.896   3.958   6.047
 4845SOL     OW15190   2.938   4.407   7.050
 4845SOL    HW115191   2.858   4.346   7.053
 4845SOL    HW215192   3.019   4.354   7.026
 4846SOL     OW15193   3.089   5.294   6.379
 4846SOL    HW115194   3.110   5.368   6.314
 4846SOL    HW215195   3.157   5.294   6.452
 4847SOL     OW15196   2.321   4.876   6.327
 4847SOL    HW115197   2.250   4.849   6.392
 4847SOL    HW215198   2.295   4.848   6.234
 4848SOL     OW15199   2.894   4.273   5.602
 4848SOL    HW115200   2.853   4.355   5.563
 4848SOL    HW215201   2.958   4.299   5.675
 4849SOL     OW15202   1.940   4.280   6.972
 4849SOL    HW115203   2.032   4.279   6.931
 4849SOL    HW215204   1.934   4.354   7.039
 4850SOL     OW15205   2.423   3.946   6.733
 4850SOL    HW115206   2.461   3.862   6.770
 4850SOL    HW215207   2.335   3.965   6.777
 4851SOL     OW15208   2.728   4.178   6.228
 4851SOL    HW115209   2.696   4.250   6.166
 4851SOL    HW215210   2.752   4.097   6.175
 4852SOL     OW15211   2.879   3.763   6.339
 4852SOL    HW115212   2.807   3.768   6.270
 4852SOL    HW215213   2.855   3.694   6.408
 4853SOL     OW15214   3.291   4.897   6.453
 4853SOL    HW115215   3.236   4.813   6.446
 4853SOL    HW215216   3.317   4.926   6.361
 4854SOL     OW15217   3.328   4.314   6.578
 4854SOL    HW115218   3.298   4.219   6.585
 4854SOL    HW215219   3.401   4.330   6.644
 4855SOL     OW15220   3.719   4.557   5.963
 4855SOL    HW115221   3.761   4.493   6.027
 4855SOL    HW215222   3.681   4.506   5.885
 4856SOL     OW15223   2.350   5.109   5.760
 4856SOL    HW115224   2.263   5.094   5.807
 4856SOL    HW215225   2.333   5.135   5.665
 4857SOL     OW15226   3.526   5.004   6.243
 4857SOL    HW115227   3.625   5.012   6.257
 4857SOL    HW215228   3.481   5.088   6.274
 4858SOL     OW15229   3.252   4.299   5.664
 4858SOL    HW115230   3.198   4.278   5.745
 4858SOL    HW215231   3.343   4.258   5.673
 4859SOL     OW15232   2.389   3.980   5.914
 4859SOL    HW115233   2.416   3.921   5.839
 4859SOL    HW215234   2.389   4.075   5.883
 4860SOL     OW15235   3.616   4.947   7.174
 4860SOL    HW115236   3.707   4.908   7.161
 4860SOL    HW215237   3.624   5.043   7.198
 4861SOL     OW15238   2.926   5.071   6.926
 4861SOL    HW115239   2.846   5.048   6.981
 4861SOL    HW215240   3.009   5.045   6.975
 4862SOL     OW15241   2.973   4.919   6.686
 4862SOL    HW115242   2.933   4.963   6.767
 4862SOL    HW215243   2.932   4.956   6.603
 4863SOL     OW15244   3.500   4.823   6.665
 4863SOL    HW115245   3.505   4.904   6.724
 4863SOL    HW215246   3.414   4.825   6.614
 4864SOL     OW15247   2.777   3.813   6.988
 4864SOL    HW115248   2.802   3.793   6.893
 4864SOL    HW215249   2.849   3.869   7.030
 4865SOL     OW15250   2.842   4.840   7.305
 4865SOL    HW115251   2.743   4.846   7.315
 4865SOL    HW215252   2.865   4.760   7.249
 4866SOL     OW15253   2.567   4.774   5.954
 4866SOL    HW115254   2.553   4.781   6.053
 4866SOL    HW215255   2.651   4.723   5.936
 4867SOL     OW15256   2.272   4.537   6.837
 4867SOL    HW115257   2.358   4.549   6.887
 4867SOL    HW215258   2.230   4.450   6.864
 4868SOL     OW15259   3.136   4.110   6.848
 4868SOL    HW115260   3.157   4.184   6.912
 4868SOL    HW215261   3.047   4.127   6.805
 4869SOL     OW15262   2.229   4.824   6.087
 4869SOL    HW115263   2.222   4.907   6.031
 4869SOL    HW215264   2.233   4.744   6.027
 4870SOL     OW15265   2.428   4.261   6.451
 4870SOL    HW115266   2.440   4.327   6.377
 4870SOL    HW215267   2.474   4.295   6.534
 4871SOL     OW15268   3.114   5.072   5.974
 4871SOL    HW115269   3.164   5.149   6.014
 4871SOL    HW215270   3.019   5.074   6.006
 4872SOL     OW15271   3.134   5.169   6.728
 4872SOL    HW115272   3.181   5.182   6.815
 4872SOL    HW215273   3.068   5.095   6.737
 4873SOL     OW15274   3.444   4.363   6.058
 4873SOL    HW115275   3.413   4.424   6.131
 4873SOL    HW215276   3.494   4.415   5.989
 4874SOL     OW15277   2.216   5.234   6.915
 4874SOL    HW115278   2.195   5.190   6.828
 4874SOL    HW215279   2.313   5.260   6.918
 4875SOL     OW15280   2.264   4.475   7.184
 4875SOL    HW115281   2.332   4.530   7.137
 4875SOL    HW215282   2.304   4.387   7.211
 4876SOL     OW15283   3.449   4.503   7.256
 4876SOL    HW115284   3.357   4.541   7.251
 4876SOL    HW215285   3.509   4.550   7.191
 4877SOL     OW15286   2.875   3.829   7.356
 4877SOL    HW115287   2.881   3.914   7.304
 4877SOL    HW215288   2.907   3.753   7.299
 4878SOL     OW15289   2.366   3.774   7.326
 4878SOL    HW115290   2.324   3.717   7.256
 4878SOL    HW215291   2.300   3.843   7.358
 4879SOL     OW15292   2.435   4.594   6.615
 4879SOL    HW115293   2.479   4.683   6.606
 4879SOL    HW215294   2.372   4.594   6.692
 4880SOL     OW15295   3.222   4.586   6.631
 4880SOL    HW115296   3.147   4.586   6.565
 4880SOL    HW215297   3.259   4.494   6.640
 4881SOL     OW15298   3.071   4.249   5.861
 4881SOL    HW115299   3.084   4.165   5.915
 4881SOL    HW215300   3.042   4.323   5.921
 4882SOL     OW15301   2.169   3.937   6.817
 4882SOL    HW115302   2.146   3.974   6.907
 4882SOL    HW215303   2.139   3.842   6.811
 4883SOL     OW15304   1.899   5.034   6.868
 4883SOL    HW115305   1.952   4.985   6.936
 4883SOL    HW215306   1.921   5.132   6.873
 4884SOL     OW15307   2.594   4.358   6.650
 4884SOL    HW115308   2.653   4.332   6.574
 4884SOL    HW215309   2.566   4.454   6.639
 4885SOL     OW15310   3.590   4.659   7.440
 4885SOL    HW115311   3.544   4.652   7.351
 4885SOL    HW215312   3.528   4.703   7.506
 4886SOL     OW15313   2.169   3.787   6.204
 4886SOL    HW115314   2.158   3.881   6.237
 4886SOL    HW215315   2.164   3.724   6.281
 4887SOL     OW15316   3.484   4.091   5.960
 4887SOL    HW115317   3.486   4.015   6.024
 4887SOL    HW215318   3.436   4.168   6.000
 4888SOL     OW15319   2.885   4.490   6.552
 4888SOL    HW115320   2.900   4.511   6.648
 4888SOL    HW215321   2.855   4.395   6.543
 4889SOL     OW15322   3.721   5.242   7.191
 4889SOL    HW115323   3.735   5.269   7.096
 4889SOL    HW215324   3.804   5.264   7.244
 4890SOL     OW15325   2.212   4.622   7.390
 4890SOL    HW115326   2.288   4.666   7.438
 4890SOL    HW215327   2.247   4.575   7.308
 4891SOL     OW15328   3.402   3.998   5.711
 4891SOL    HW115329   3.341   3.923   5.734
 4891SOL    HW215330   3.424   4.050   5.794
 4892SOL     OW15331   3.165   4.562   5.628
 4892SOL    HW115332   3.199   4.469   5.643
 4892SOL    HW215333   3.183   4.589   5.533
 4893SOL     OW15334   2.930   5.057   6.435
 4893SOL    HW115335   2.937   4.973   6.380
 4893SOL    HW215336   2.992   5.126   6.399
 4894SOL     OW15337   2.181   4.534   6.535
 4894SOL    HW115338   2.274   4.570   6.540
 4894SOL    HW215339   2.175   4.449   6.587
 4895SOL     OW15340   2.201   4.233   6.592
 4895SOL    HW115341   2.149   4.150   6.575
 4895SOL    HW215342   2.278   4.238   6.528
 4896SOL     OW15343   3.000   4.104   7.264
 4896SOL    HW115344   2.955   4.167   7.328
 4896SOL    HW215345   3.093   4.135   7.247
 4897SOL     OW15346   3.022   3.931   7.063
 4897SOL    HW115347   3.022   3.995   7.140
 4897SOL    HW215348   3.050   3.979   6.980
 4898SOL     OW15349   1.870   5.050   5.786
 4898SOL    HW115350   1.777   5.071   5.755
 4898SOL    HW215351   1.880   4.951   5.799
 4899SOL     OW15352   2.864   4.520   6.824
 4899SOL    HW115353   2.905   4.488   6.910
 4899SOL    HW215354   2.768   4.493   6.821
 4900SOL     OW15355   1.902   4.268   6.700
 4900SOL    HW115356   1.987   4.235   6.659
 4900SOL    HW215357   1.915   4.283   6.798
 4901SOL     OW15358   2.051   4.244   7.308
 4901SOL    HW115359   2.110   4.204   7.238
 4901SOL    HW215360   1.993   4.315   7.267
 4902SOL     OW15361   3.231   4.674   7.246
 4902SOL    HW115362   3.270   4.763   7.266
 4902SOL    HW215363   3.241   4.654   7.149
 4903SOL     OW15364   2.677   4.296   5.911
 4903SOL    HW115365   2.684   4.207   5.865
 4903SOL    HW215366   2.583   4.330   5.903
 4904SOL     OW15367   3.519   4.328   6.792
 4904SOL    HW115368   3.481   4.259   6.854
 4904SOL    HW215369   3.601   4.292   6.748
 4905SOL     OW15370   2.114   5.288   7.330
 4905SOL    HW115371   2.084   5.345   7.406
 4905SOL    HW215372   2.107   5.191   7.356
 4906SOL     OW15373   2.533   4.188   6.855
 4906SOL    HW115374   2.499   4.099   6.825
 4906SOL    HW215375   2.559   4.242   6.775
 4907SOL     OW15376   2.335   4.224   5.777
 4907SOL    HW115377   2.396   4.304   5.781
 4907SOL    HW215378   2.240   4.255   5.784
 4908SOL     OW15379   2.021   4.861   7.052
 4908SOL    HW115380   2.043   4.800   7.128
 4908SOL    HW215381   2.031   4.812   6.966
 4909SOL     OW15382   3.209   4.783   6.820
 4909SOL    HW115383   3.233   4.720   6.746
 4909SOL    HW215384   3.119   4.823   6.802
 4910SOL     OW15385   3.164   4.579   5.895
 4910SOL    HW115386   3.078   4.548   5.937
 4910SOL    HW215387   3.160   4.565   5.796
 4911SOL     OW15388   1.945   4.982   6.608
 4911SOL    HW115389   1.940   4.981   6.708
 4911SOL    HW215390   1.862   4.941   6.570
 4912SOL     OW15391   2.550   5.386   7.302
 4912SOL    HW115392   2.494   5.467   7.311
 4912SOL    HW215393   2.602   5.390   7.216
 4913SOL     OW15394   3.588   3.859   6.109
 4913SOL    HW115395   3.661   3.842   6.042
 4913SOL    HW215396   3.557   3.772   6.147
 4914SOL     OW15397   3.142   4.651   6.258
 4914SOL    HW115398   3.202   4.570   6.260
 4914SOL    HW215399   3.182   4.720   6.198
 4915SOL     OW15400   2.692   4.997   7.008
 4915SOL    HW115401   2.687   5.030   7.103
 4915SOL    HW215402   2.606   5.016   6.962
 4916SOL     OW15403   3.703   3.899   6.549
 4916SOL    HW115404   3.742   3.814   6.513
 4916SOL    HW215405   3.605   3.901   6.530
 4917SOL     OW15406   2.125   4.050   6.306
 4917SOL    HW115407   2.046   4.101   6.272
 4917SOL    HW215408   2.116   4.035   6.404
 4918SOL     OW15409   2.684   4.726   6.958
 4918SOL    HW115410   2.724   4.725   6.866
 4918SOL    HW215411   2.694   4.818   6.998
 4919SOL     OW15412   2.778   4.634   5.877
 4919SOL    HW115413   2.841   4.672   5.809
 4919SOL    HW215414   2.818   4.551   5.916
 4920SOL     OW15415   2.234   5.012   7.076
 4920SOL    HW115416   2.221   5.105   7.042
 4920SOL    HW215417   2.150   4.960   7.063
 4921SOL     OW15418   3.476   5.016   6.875
 4921SOL    HW115419   3.536   5.019   6.955
 4921SOL    HW215420   3.401   5.080   6.888
 4922SOL     OW15421   2.901   4.822   6.282
 4922SOL    HW115422   2.831   4.775   6.336
 4922SOL    HW215423   2.960   4.754   6.239
 4923SOL     OW15424   2.876   3.960   6.557
 4923SOL    HW115425   2.868   3.924   6.464
 4923SOL    HW215426   2.874   3.884   6.622
 4924SOL     OW15427   3.571   4.109   6.967
 4924SOL    HW115428   3.644   4.178   6.971
 4924SOL    HW215429   3.599   4.034   6.908
 4925SOL     OW15430   2.117   5.072   5.876
 4925SOL    HW115431   2.021   5.073   5.849
 4925SOL    HW215432   2.129   5.125   5.960
 4926SOL     OW15433   1.967   4.737   7.312
 4926SOL    HW115434   1.890   4.704   7.366
 4926SOL    HW215435   2.052   4.707   7.354
 4927SOL     OW15436   2.534   3.927   7.075
 4927SOL    HW115437   2.624   3.911   7.035
 4927SOL    HW215438   2.542   3.932   7.174
 4928SOL     OW15439   1.937   4.069   5.619
 4928SOL    HW115440   1.845   4.041   5.590
 4928SOL    HW215441   1.968   4.146   5.563
 4929SOL     OW15442   3.302   4.580   6.984
 4929SOL    HW115443   3.245   4.632   6.921
 4929SOL    HW215444   3.398   4.592   6.960
 4930SOL     OW15445   1.934   3.890   5.904
 4930SOL    HW115446   1.917   3.973   5.850
 4930SOL    HW215447   2.024   3.853   5.882
 4931SOL     OW15448   3.045   5.059   5.705
 4931SOL    HW115449   2.946   5.048   5.707
 4931SOL    HW215450   3.079   5.074   5.798
 4932SOL     OW15451   2.475   4.566   7.017
 4932SOL    HW115452   2.531   4.647   7.000
 4932SOL    HW215453   2.534   4.486   7.020
 4933SOL     OW15454   2.578   4.289   7.294
 4933SOL    HW115455   2.597   4.354   7.368
 4933SOL    HW215456   2.638   4.209   7.303
 4934SOL     OW15457   3.312   4.944   7.219
 4934SOL    HW115458   3.303   4.934   7.318
 4934SOL    HW215459   3.408   4.937   7.193
 4935SOL     OW15460   3.536   4.607   6.840
 4935SOL    HW115461   3.509   4.518   6.803
 4935SOL    HW215462   3.537   4.675   6.767
 4936SOL     OW15463   3.087   4.049   6.035
 4936SOL    HW115464   3.152   3.975   6.024
 4936SOL    HW215465   3.107   4.099   6.119
 4937SOL     OW15466   2.456   4.469   6.238
 4937SOL    HW115467   2.506   4.554   6.219
 4937SOL    HW215468   2.368   4.471   6.190
 4938SOL     OW15469   3.639   4.066   7.228
 4938SOL    HW115470   3.622   4.097   7.134
 4938SOL    HW215471   3.555   4.029   7.266
 4939SOL     OW15472   3.592   4.658   7.103
 4939SOL    HW115473   3.630   4.749   7.118
 4939SOL    HW215474   3.584   4.641   7.004
 4940SOL     OW15475   2.721   5.098   5.602
 4940SOL    HW115476   2.675   5.113   5.690
 4940SOL    HW215477   2.765   5.183   5.572
 4941SOL     OW15478   2.721   4.680   6.447
 4941SOL    HW115479   2.775   4.611   6.495
 4941SOL    HW215480   2.689   4.749   6.513
 4942SOL     OW15481   2.945   4.708   5.673
 4942SOL    HW115482   2.922   4.761   5.591
 4942SOL    HW215483   3.026   4.652   5.654
 4943SOL     OW15484   2.083   5.038   7.430
 4943SOL    HW115485   2.018   4.965   7.409
 4943SOL    HW215486   2.087   5.052   7.528
 4944SOL     OW15487   1.941   4.964   6.239
 4944SOL    HW115488   1.940   4.917   6.327
 4944SOL    HW215489   2.023   4.936   6.188
 4945SOL     OW15490   2.534   5.115   7.210
 4945SOL    HW115491   2.456   5.065   7.248
 4945SOL    HW215492   2.531   5.210   7.241
 4946SOL     OW15493   3.686   3.916   6.813
 4946SOL    HW115494   3.682   3.826   6.857
 4946SOL    HW215495   3.689   3.905   6.714
 4947SOL     OW15496   2.290   4.148   6.106
 4947SOL    HW115497   2.320   4.076   6.044
 4947SOL    HW215498   2.251   4.108   6.189
 4948SOL     OW15499   3.567   5.211   6.690
 4948SOL    HW115500   3.474   5.186   6.663
 4948SOL    HW215501   3.593   5.161   6.772
 4949SOL     OW15502   2.179   4.271   6.866
 4949SOL    HW115503   2.217   4.212   6.938
 4949SOL    HW215504   2.219   4.245   6.778
 4950SOL     OW15505   3.286   3.938   6.698
 4950SOL    HW115506   3.338   3.873   6.753
 4950SOL    HW215507   3.237   4.001   6.759
 4951SOL     OW15508   2.863   3.758   6.740
 4951SOL    HW115509   2.800   3.686   6.709
 4951SOL    HW215510   2.956   3.722   6.740
 4952SOL     OW15511   2.632   5.054   5.887
 4952SOL    HW115512   2.586   4.967   5.904
 4952SOL    HW215513   2.723   5.051   5.928
 4953SOL     OW15514   2.480   5.291   6.870
 4953SOL    HW115515   2.475   5.373   6.927
 4953SOL    HW215516   2.569   5.288   6.825
 4954SOL     OW15517   3.214   3.776   5.754
 4954SOL    HW115518   3.249   3.735   5.670
 4954SOL    HW215519   3.124   3.738   5.774
 4955SOL     OW15520   3.162   4.177   6.277
 4955SOL    HW115521   3.103   4.257   6.281
 4955SOL    HW215522   3.177   4.142   6.370
 4956SOL     OW15523   3.455   3.945   6.468
 4956SOL    HW115524   3.371   3.944   6.522
 4956SOL    HW215525   3.457   4.028   6.412
 4957SOL     OW15526   1.901   4.801   5.886
 4957SOL    HW115527   2.000   4.790   5.877
 4957SOL    HW215528   1.861   4.715   5.918
 4958SOL     OW15529   2.092   4.352   7.561
 4958SOL    HW115530   1.999   4.350   7.598
 4958SOL    HW215531   2.093   4.313   7.469
 4959SOL     OW15532   3.617   4.331   7.679
 4959SOL    HW115533   3.605   4.318   7.580
 4959SOL    HW215534   3.587   4.250   7.728
 4960SOL     OW15535   2.093   5.437   7.931
 4960SOL    HW115536   2.127   5.514   7.985
 4960SOL    HW215537   2.137   5.437   7.841
 4961SOL     OW15538   2.092   5.158   7.986
 4961SOL    HW115539   2.066   5.254   7.986
 4961SOL    HW215540   2.021   5.104   8.031
 4962SOL     OW15541   2.468   4.688   7.571
 4962SOL    HW115542   2.475   4.772   7.517
 4962SOL    HW215543   2.514   4.701   7.659
 4963SOL     OW15544   1.889   5.320   7.565
 4963SOL    HW115545   1.870   5.224   7.586
 4963SOL    HW215546   1.856   5.378   7.640
 4964SOL     OW15547   3.551   4.646   8.060
 4964SOL    HW115548   3.646   4.617   8.068
 4964SOL    HW215549   3.543   4.711   7.985
 4965SOL     OW15550   3.503   4.832   7.880
 4965SOL    HW115551   3.589   4.834   7.828
 4965SOL    HW215552   3.517   4.879   7.968
 4966SOL     OW15553   2.671   3.728   7.950
 4966SOL    HW115554   2.711   3.819   7.941
 4966SOL    HW215555   2.571   3.736   7.956
 4967SOL     OW15556   3.387   4.723   7.638
 4967SOL    HW115557   3.324   4.647   7.651
 4967SOL    HW215558   3.435   4.741   7.724
 4968SOL     OW15559   2.460   4.453   7.718
 4968SOL    HW115560   2.484   4.522   7.650
 4968SOL    HW215561   2.382   4.486   7.772
 4969SOL     OW15562   1.938   4.535   8.237
 4969SOL    HW115563   2.037   4.523   8.246
 4969SOL    HW215564   1.914   4.630   8.258
 4970SOL     OW15565   2.727   4.072   7.643
 4970SOL    HW115566   2.786   4.135   7.594
 4970SOL    HW215567   2.746   3.978   7.614
 4971SOL     OW15568   2.183   4.667   7.690
 4971SOL    HW115569   2.265   4.706   7.648
 4971SOL    HW215570   2.156   4.585   7.641
 4972SOL     OW15571   2.973   5.500   7.685
 4972SOL    HW115572   2.913   5.438   7.735
 4972SOL    HW215573   3.004   5.456   7.600
 4973SOL     OW15574   3.494   5.101   7.529
 4973SOL    HW115575   3.462   5.195   7.519
 4973SOL    HW215576   3.418   5.038   7.517
 4974SOL     OW15577   3.262   3.831   7.874
 4974SOL    HW115578   3.238   3.794   7.784
 4974SOL    HW215579   3.361   3.847   7.878
 4975SOL     OW15580   2.244   4.424   7.928
 4975SOL    HW115581   2.289   4.334   7.925
 4975SOL    HW215582   2.150   4.413   7.961
 4976SOL     OW15583   2.476   3.846   7.565
 4976SOL    HW115584   2.574   3.824   7.572
 4976SOL    HW215585   2.445   3.829   7.472
 4977SOL     OW15586   2.401   3.788   7.960
 4977SOL    HW115587   2.320   3.789   8.018
 4977SOL    HW215588   2.404   3.871   7.905
 4978SOL     OW15589   3.296   4.912   7.489
 4978SOL    HW115590   3.328   4.836   7.546
 4978SOL    HW215591   3.204   4.939   7.519
 4979SOL     OW15592   2.159   3.759   7.619
 4979SOL    HW115593   2.208   3.843   7.598
 4979SOL    HW215594   2.221   3.694   7.664
 4980SOL     OW15595   2.797   3.960   7.928
 4980SOL    HW115596   2.749   4.001   7.850
 4980SOL    HW215597   2.896   3.958   7.909
 4981SOL     OW15598   2.321   4.876   8.189
 4981SOL    HW115599   2.250   4.849   8.254
 4981SOL    HW215600   2.295   4.848   8.096
 4982SOL     OW15601   2.894   4.273   7.464
 4982SOL    HW115602   2.853   4.355   7.425
 4982SOL    HW215603   2.958   4.299   7.537
 4983SOL     OW15604   3.719   4.557   7.825
 4983SOL    HW115605   3.761   4.493   7.889
 4983SOL    HW215606   3.681   4.506   7.747
 4984SOL     OW15607   2.350   5.109   7.622
 4984SOL    HW115608   2.263   5.094   7.669
 4984SOL    HW215609   2.333   5.135   7.527
 4985SOL     OW15610   3.252   4.299   7.526
 4985SOL    HW115611   3.198   4.278   7.607
 4985SOL    HW215612   3.343   4.258   7.535
 4986SOL     OW15613   2.389   3.980   7.776
 4986SOL    HW115614   2.416   3.921   7.701
 4986SOL    HW215615   2.389   4.075   7.745
 4987SOL     OW15616   2.567   4.774   7.816
 4987SOL    HW115617   2.553   4.781   7.915
 4987SOL    HW215618   2.651   4.723   7.798
 4988SOL     OW15619   2.229   4.824   7.949
 4988SOL    HW115620   2.222   4.907   7.893
 4988SOL    HW215621   2.233   4.744   7.889
 4989SOL     OW15622   3.114   5.072   7.836
 4989SOL    HW115623   3.164   5.149   7.876
 4989SOL    HW215624   3.019   5.074   7.868
 4990SOL     OW15625   3.444   4.363   7.920
 4990SOL    HW115626   3.413   4.424   7.993
 4990SOL    HW215627   3.494   4.415   7.851
 4991SOL     OW15628   3.071   4.249   7.723
 4991SOL    HW115629   3.084   4.165   7.777
 4991SOL    HW215630   3.042   4.323   7.783
 4992SOL     OW15631   3.484   4.091   7.822
 4992SOL    HW115632   3.486   4.015   7.886
 4992SOL    HW215633   3.436   4.168   7.862
 4993SOL     OW15634   3.402   3.998   7.573
 4993SOL    HW115635   3.341   3.923   7.596
 4993SOL    HW215636   3.424   4.050   7.656
 4994SOL     OW15637   3.165   4.562   7.490
 4994SOL    HW115638   3.199   4.469   7.505
 4994SOL    HW215639   3.183   4.589   7.395
 4995SOL     OW15640   1.870   5.050   7.648
 4995SOL    HW115641   1.777   5.071   7.617
 4995SOL    HW215642   1.880   4.951   7.661
 4996SOL     OW15643   2.677   4.296   7.773
 4996SOL    HW115644   2.684   4.207   7.727
 4996SOL    HW215645   2.583   4.330   7.765
 4997SOL     OW15646   2.335   4.224   7.639
 4997SOL    HW115647   2.396   4.304   7.643
 4997SOL    HW215648   2.240   4.255   7.646
 4998SOL     OW15649   3.164   4.579   7.757
 4998SOL    HW115650   3.078   4.548   7.799
 4998SOL    HW215651   3.160   4.565   7.658
 4999SOL     OW15652   3.588   3.859   7.971
 4999SOL    HW115653   3.661   3.842   7.904
 4999SOL    HW215654   3.557   3.772   8.009
 5000SOL     OW15655   2.778   4.634   7.739
 5000SOL    HW115656   2.841   4.672   7.671
 5000SOL    HW215657   2.818   4.551   7.778
 5001SOL     OW15658   2.117   5.072   7.738
 5001SOL    HW115659   2.021   5.073   7.711
 5001SOL    HW215660   2.129   5.125   7.822
 5002SOL     OW15661   1.937   4.069   7.481
 5002SOL    HW115662   1.845   4.041   7.452
 5002SOL    HW215663   1.968   4.146   7.425
 5003SOL     OW15664   1.934   3.890   7.766
 5003SOL    HW115665   1.917   3.973   7.712
 5003SOL    HW215666   2.024   3.853   7.744
 5004SOL     OW15667   3.045   5.059   7.567
 5004SOL    HW115668   2.946   5.048   7.569
 5004SOL    HW215669   3.079   5.074   7.660
 5005SOL     OW15670   3.087   4.049   7.897
 5005SOL    HW115671   3.152   3.975   7.886
 5005SOL    HW215672   3.107   4.099   7.981
 5006SOL     OW15673   2.456   4.469   8.100
 5006SOL    HW115674   2.506   4.554   8.081
 5006SOL    HW215675   2.368   4.471   8.052
 5007SOL     OW15676   2.721   5.098   7.464
 5007SOL    HW115677   2.675   5.113   7.552
 5007SOL    HW215678   2.765   5.183   7.434
 5008SOL     OW15679   2.945   4.708   7.535
 5008SOL    HW115680   2.922   4.761   7.453
 5008SOL    HW215681   3.026   4.652   7.516
 5009SOL     OW15682   2.290   4.148   7.968
 5009SOL    HW115683   2.320   4.076   7.906
 5009SOL    HW215684   2.251   4.108   8.051
 5010SOL     OW15685   2.632   5.054   7.749
 5010SOL    HW115686   2.586   4.967   7.766
 5010SOL    HW215687   2.723   5.051   7.790
 5011SOL     OW15688   3.214   3.776   7.616
 5011SOL    HW115689   3.249   3.735   7.532
 5011SOL    HW215690   3.124   3.738   7.636
 5012SOL     OW15691   1.901   4.801   7.748
 5012SOL    HW115692   2.000   4.790   7.739
 5012SOL    HW215693   1.861   4.715   7.780
 5013SOL     OW15694   3.954   0.628   0.113
 5013SOL    HW115695   3.861   0.626   0.150
 5013SOL    HW215696   3.955   0.589   0.021
 5014SOL     OW15697   3.949   0.275   0.996
 5014SOL    HW115698   3.984   0.258   1.088
 5014SOL    HW215699   3.861   0.230   0.984
 5015SOL     OW15700   3.743   0.368   0.647
 5015SOL    HW115701   3.661   0.411   0.686
 5015SOL    HW215702   3.715   0.295   0.584
 5016SOL     OW15703   4.293   1.275   1.165
 5016SOL    HW115704   4.200   1.268   1.128
 5016SOL    HW215705   4.304   1.364   1.209
 5017SOL     OW15706   5.279   1.511   0.703
 5017SOL    HW115707   5.222   1.495   0.784
 5017SOL    HW215708   5.220   1.521   0.623
 5018SOL     OW15709   4.859   0.703   0.717
 5018SOL    HW115710   4.916   0.781   0.692
 5018SOL    HW215711   4.799   0.729   0.793
 5019SOL     OW15712   4.492   1.144   1.023
 5019SOL    HW115713   4.414   1.161   1.083
 5019SOL    HW215714   4.526   1.231   0.987
 5020SOL     OW15715   4.574   0.798   1.823
 5020SOL    HW115716   4.570   0.874   1.888
 5020SOL    HW215717   4.596   0.834   1.732
 5021SOL     OW15718   4.409   1.012   0.665
 5021SOL    HW115719   4.478   0.996   0.735
 5021SOL    HW215720   4.336   1.069   0.703
 5022SOL     OW15721   4.410   1.161   1.803
 5022SOL    HW115722   4.470   1.240   1.817
 5022SOL    HW215723   4.324   1.192   1.762
 5023SOL     OW15724   4.059   1.435   1.061
 5023SOL    HW115725   3.981   1.404   1.008
 5023SOL    HW215726   4.117   1.493   1.004
 5024SOL     OW15727   5.184   1.505   1.339
 5024SOL    HW115728   5.208   1.599   1.365
 5024SOL    HW215729   5.168   1.451   1.421
 5025SOL     OW15730   4.162   0.392   1.499
 5025SOL    HW115731   4.244   0.336   1.508
 5025SOL    HW215732   4.081   0.334   1.503
 5026SOL     OW15733   3.955   1.713   0.483
 5026SOL    HW115734   3.989   1.790   0.537
 5026SOL    HW215735   3.999   1.713   0.393
 5027SOL     OW15736   4.851   1.341   1.690
 5027SOL    HW115737   4.898   1.341   1.778
 5027SOL    HW215738   4.803   1.254   1.679
 5028SOL     OW15739   3.954   1.434   0.538
 5028SOL    HW115740   3.928   1.530   0.538
 5028SOL    HW215741   3.883   1.380   0.583
 5029SOL     OW15742   3.964   1.091   0.886
 5029SOL    HW115743   3.978   1.007   0.938
 5029SOL    HW215744   3.909   1.155   0.941
 5030SOL     OW15745   4.344   1.786   1.439
 5030SOL    HW115746   4.252   1.769   1.474
 5030SOL    HW215747   4.372   1.878   1.465
 5031SOL     OW15748   4.330   0.964   0.123
 5031SOL    HW115749   4.337   1.048   0.069
 5031SOL    HW215750   4.376   0.977   0.211
 5032SOL     OW15751   5.318   0.114   1.480
 5032SOL    HW115752   5.300   0.181   1.408
 5032SOL    HW215753   5.315   0.160   1.569
 5033SOL     OW15754   3.846   0.643   0.563
 5033SOL    HW115755   3.801   0.555   0.580
 5033SOL    HW215756   3.845   0.697   0.647
 5034SOL     OW15757   3.751   1.596   0.117
 5034SOL    HW115758   3.732   1.500   0.138
 5034SOL    HW215759   3.718   1.654   0.192
 5035SOL     OW15760   5.413   0.922   0.612
 5035SOL    HW115761   5.508   0.893   0.620
 5035SOL    HW215762   5.405   0.987   0.537
 5036SOL     OW15763   3.837   0.737   1.597
 5036SOL    HW115764   3.925   0.724   1.642
 5036SOL    HW215765   3.824   0.834   1.575
 5037SOL     OW15766   4.337   1.365   0.726
 5037SOL    HW115767   4.288   1.278   0.735
 5037SOL    HW215768   4.314   1.408   0.639
 5038SOL     OW15769   5.017   1.228   1.423
 5038SOL    HW115770   5.054   1.155   1.365
 5038SOL    HW215771   5.069   1.233   1.508
 5039SOL     OW15772   4.533   0.004   0.502
 5039SOL    HW115773   4.573   0.095   0.493
 5039SOL    HW215774   4.433   0.012   0.508
 5040SOL     OW15775   3.921   0.976   1.264
 5040SOL    HW115776   4.010   0.931   1.250
 5040SOL    HW215777   3.848   0.911   1.245
 5041SOL     OW15778   4.911   1.792   1.616
 5041SOL    HW115779   4.935   1.852   1.540
 5041SOL    HW215780   4.918   1.697   1.586
 5042SOL     OW15781   4.041   0.251   1.801
 5042SOL    HW115782   4.112   0.322   1.807
 5042SOL    HW215783   3.953   0.290   1.829
 5043SOL     OW15784   5.190   1.417   0.953
 5043SOL    HW115785   5.131   1.423   1.033
 5043SOL    HW215786   5.175   1.329   0.907
 5044SOL     OW15787   4.322   0.729   0.270
 5044SOL    HW115788   4.346   0.798   0.202
 5044SOL    HW215789   4.244   0.762   0.324
 5045SOL     OW15790   5.005   0.345   0.944
 5045SOL    HW115791   4.919   0.295   0.931
 5045SOL    HW215792   5.067   0.291   1.000
 5046SOL     OW15793   4.531   0.605   1.465
 5046SOL    HW115794   4.484   0.602   1.554
 5046SOL    HW215795   4.480   0.550   1.399
 5047SOL     OW15796   5.118   0.469   1.674
 5047SOL    HW115797   5.098   0.512   1.762
 5047SOL    HW215798   5.196   0.407   1.683
 5048SOL     OW15799   4.697   0.890   1.572
 5048SOL    HW115800   4.743   0.806   1.543
 5048SOL    HW215801   4.641   0.924   1.497
 5049SOL     OW15802   4.715   0.410   1.242
 5049SOL    HW115803   4.638   0.444   1.296
 5049SOL    HW215804   4.681   0.359   1.163
 5050SOL     OW15805   4.765   0.701   0.429
 5050SOL    HW115806   4.791   0.697   0.525
 5050SOL    HW215807   4.680   0.650   0.415
 5051SOL     OW15808   3.800   0.811   0.789
 5051SOL    HW115809   3.899   0.799   0.798
 5051SOL    HW215810   3.776   0.906   0.810
 5052SOL     OW15811   3.854   1.821   1.571
 5052SOL    HW115812   3.844   1.806   1.670
 5052SOL    HW215813   3.768   1.857   1.535
 5053SOL     OW15814   4.589   0.348   0.195
 5053SOL    HW115815   4.648   0.411   0.146
 5053SOL    HW215816   4.608   0.254   0.166
 5054SOL     OW15817   5.086   1.144   0.545
 5054SOL    HW115818   5.169   1.115   0.497
 5054SOL    HW215819   5.037   1.211   0.489
 5055SOL     OW15820   4.274   0.196   0.885
 5055SOL    HW115821   4.269   0.191   0.985
 5055SOL    HW215822   4.276   0.292   0.856
 5056SOL     OW15823   4.732   1.456   0.477
 5056SOL    HW115824   4.686   1.528   0.425
 5056SOL    HW215825   4.728   1.476   0.575
 5057SOL     OW15826   4.075   1.801   0.853
 5057SOL    HW115827   4.125   1.715   0.859
 5057SOL    HW215828   4.140   1.878   0.850
 5058SOL     OW15829   4.951   1.550   1.506
 5058SOL    HW115830   4.957   1.473   1.570
 5058SOL    HW215831   4.899   1.524   1.426
 5059SOL     OW15832   4.045   0.943   0.242
 5059SOL    HW115833   4.127   0.982   0.200
 5059SOL    HW215834   4.018   0.861   0.193
 5060SOL     OW15835   4.185   1.266   1.727
 5060SOL    HW115836   4.135   1.267   1.641
 5060SOL    HW215837   4.122   1.248   1.803
 5061SOL     OW15838   4.835   1.776   0.237
 5061SOL    HW115839   4.775   1.714   0.287
 5061SOL    HW215840   4.866   1.732   0.152
 5062SOL     OW15841   3.926   0.285   1.498
 5062SOL    HW115842   3.846   0.345   1.485
 5062SOL    HW215843   3.916   0.236   1.584
 5063SOL     OW15844   4.188   1.743   0.323
 5063SOL    HW115845   4.221   1.782   0.409
 5063SOL    HW215846   4.264   1.736   0.258
 5064SOL     OW15847   5.124   0.107   0.426
 5064SOL    HW115848   5.100   0.070   0.336
 5064SOL    HW215849   5.223   0.123   0.430
 5065SOL     OW15850   3.973   1.785   1.241
 5065SOL    HW115851   4.030   1.720   1.291
 5065SOL    HW215852   3.957   1.752   1.148
 5066SOL     OW15853   4.664   1.698   0.904
 5066SOL    HW115854   4.744   1.641   0.925
 5066SOL    HW215855   4.615   1.658   0.827
 5067SOL     OW15856   4.106   0.700   0.480
 5067SOL    HW115857   4.151   0.610   0.477
 5067SOL    HW215858   4.012   0.689   0.513
 5068SOL     OW15859   4.338   0.122   0.117
 5068SOL    HW115860   4.436   0.100   0.124
 5068SOL    HW215861   4.307   0.105   0.024
 5069SOL     OW15862   4.505   0.264   1.749
 5069SOL    HW115863   4.572   0.203   1.792
 5069SOL    HW215864   4.432   0.283   1.814
 5070SOL     OW15865   4.612   1.514   1.195
 5070SOL    HW115866   4.589   1.489   1.101
 5070SOL    HW215867   4.673   1.445   1.234
 5071SOL     OW15868   5.075   0.590   1.433
 5071SOL    HW115869   5.103   0.547   1.518
 5071SOL    HW215870   5.100   0.686   1.434
 5072SOL     OW15871   4.527   1.402   0.924
 5072SOL    HW115872   4.617   1.416   0.882
 5072SOL    HW215873   4.456   1.404   0.853
 5073SOL     OW15874   4.646   0.503   0.899
 5073SOL    HW115875   4.621   0.494   0.803
 5073SOL    HW215876   4.694   0.421   0.930
 5074SOL     OW15877   4.263   0.064   0.512
 5074SOL    HW115878   4.182   0.065   0.570
 5074SOL    HW215879   4.266   0.147   0.457
 5075SOL     OW15880   5.158   1.188   0.041
 5075SOL    HW115881   5.190   1.112   0.098
 5075SOL    HW215882   5.066   1.215   0.071
 5076SOL     OW15883   4.021   0.035   0.171
 5076SOL    HW115884   4.070   0.119   0.150
 5076SOL    HW215885   4.083  -0.030   0.216
 5077SOL     OW15886   4.659   0.236   0.480
 5077SOL    HW115887   4.611   0.277   0.402
 5077SOL    HW215888   4.758   0.234   0.461
 5078SOL     OW15889   4.800   0.683   1.464
 5078SOL    HW115890   4.720   0.622   1.467
 5078SOL    HW215891   4.881   0.630   1.440
 5079SOL     OW15892   4.951   1.570   0.793
 5079SOL    HW115893   4.972   1.644   0.728
 5079SOL    HW215894   5.019   1.570   0.866
 5080SOL     OW15895   4.183   1.152   0.741
 5080SOL    HW115896   4.112   1.125   0.806
 5080SOL    HW215897   4.157   1.124   0.648
 5081SOL     OW15898   4.995   1.797   0.591
 5081SOL    HW115899   5.039   1.861   0.527
 5081SOL    HW215900   4.945   1.849   0.661
 5082SOL     OW15901   4.756   0.549   0.016
 5082SOL    HW115902   4.715   0.631  -0.023
 5082SOL    HW215903   4.820   0.575   0.089
 5083SOL     OW15904   3.802   0.556   1.386
 5083SOL    HW115905   3.894   0.555   1.345
 5083SOL    HW215906   3.796   0.630   1.453
 5084SOL     OW15907   4.285   0.222   1.147
 5084SOL    HW115908   4.323   0.138   1.184
 5084SOL    HW215909   4.197   0.241   1.191
 5085SOL     OW15910   4.590   0.454   0.642
 5085SOL    HW115911   4.558   0.526   0.580
 5085SOL    HW215912   4.614   0.373   0.589
 5086SOL     OW15913   4.741   0.039   0.753
 5086SOL    HW115914   4.669   0.044   0.684
 5086SOL    HW215915   4.717  -0.030   0.822
 5087SOL     OW15916   5.153   1.173   0.867
 5087SOL    HW115917   5.098   1.089   0.860
 5087SOL    HW215918   5.179   1.202   0.775
 5088SOL     OW15919   4.212   1.385   0.174
 5088SOL    HW115920   4.125   1.370   0.221
 5088SOL    HW215921   4.195   1.411   0.079
 5089SOL     OW15922   5.114   0.575   0.078
 5089SOL    HW115923   5.060   0.554   0.159
 5089SOL    HW215924   5.205   0.534   0.087
 5090SOL     OW15925   4.251   0.256   0.328
 5090SOL    HW115926   4.278   0.197   0.253
 5090SOL    HW215927   4.251   0.351   0.297
 5091SOL     OW15928   4.788   1.347   1.340
 5091SOL    HW115929   4.708   1.324   1.395
 5091SOL    HW215930   4.871   1.321   1.389
 5092SOL     OW15931   5.316   1.629   1.625
 5092SOL    HW115932   5.343   1.663   1.535
 5092SOL    HW215933   5.395   1.591   1.671
 5093SOL     OW15934   4.835   1.195   1.100
 5093SOL    HW115935   4.795   1.239   1.181
 5093SOL    HW215936   4.794   1.232   1.017
 5094SOL     OW15937   4.639   0.089   1.402
 5094SOL    HW115938   4.664   0.069   1.307
 5094SOL    HW215939   4.711   0.145   1.444
 5095SOL     OW15940   4.704   1.116   1.719
 5095SOL    HW115941   4.605   1.122   1.729
 5095SOL    HW215942   4.727   1.036   1.663
 5096SOL     OW15943   4.429   1.050   0.368
 5096SOL    HW115944   4.415   1.057   0.467
 5096SOL    HW215945   4.513   0.999   0.350
 5097SOL     OW15946   4.134   0.813   1.251
 5097SOL    HW115947   4.220   0.825   1.301
 5097SOL    HW215948   4.092   0.726   1.278
 5098SOL     OW15949   4.998   0.386   1.262
 5098SOL    HW115950   5.019   0.460   1.326
 5098SOL    HW215951   4.909   0.403   1.219
 5099SOL     OW15952   3.788   1.564   1.331
 5099SOL    HW115953   3.742   1.646   1.297
 5099SOL    HW215954   3.886   1.583   1.340
 5100SOL     OW15955   4.091   1.100   0.501
 5100SOL    HW115956   4.084   1.183   0.445
 5100SOL    HW215957   4.095   1.020   0.441
 5101SOL     OW15958   4.290   0.537   0.865
 5101SOL    HW115959   4.302   0.603   0.791
 5101SOL    HW215960   4.336   0.571   0.948
 5102SOL     OW15961   4.976   1.348   0.388
 5102SOL    HW115962   5.026   1.425   0.428
 5102SOL    HW215963   4.881   1.350   0.420
 5103SOL     OW15964   4.996   1.445   1.142
 5103SOL    HW115965   5.043   1.458   1.229
 5103SOL    HW215966   4.930   1.371   1.151
 5104SOL     OW15967   4.078   1.510   1.329
 5104SOL    HW115968   4.057   1.466   1.242
 5104SOL    HW215969   4.175   1.536   1.332
 5105SOL     OW15970   4.126   0.751   1.598
 5105SOL    HW115971   4.194   0.806   1.551
 5105SOL    HW215972   4.166   0.663   1.625
 5106SOL     OW15973   4.737   0.105   1.770
 5106SOL    HW115974   4.743   0.190   1.718
 5106SOL    HW215975   4.769   0.029   1.713
 5107SOL     OW15976   4.228   0.050   1.740
 5107SOL    HW115977   4.186  -0.007   1.670
 5107SOL    HW215978   4.162   0.119   1.772
 5108SOL     OW15979   4.297   0.870   1.029
 5108SOL    HW115980   4.341   0.959   1.020
 5108SOL    HW215981   4.234   0.870   1.106
 5109SOL     OW15982   5.084   0.862   1.045
 5109SOL    HW115983   5.009   0.862   0.979
 5109SOL    HW215984   5.121   0.770   1.054
 5110SOL     OW15985   4.933   0.525   0.275
 5110SOL    HW115986   4.946   0.441   0.329
 5110SOL    HW215987   4.904   0.599   0.335
 5111SOL     OW15988   4.031   0.213   1.231
 5111SOL    HW115989   4.008   0.250   1.321
 5111SOL    HW215990   4.001   0.118   1.225
 5112SOL     OW15991   3.761   1.310   1.282
 5112SOL    HW115992   3.814   1.261   1.350
 5112SOL    HW215993   3.783   1.408   1.287
 5113SOL     OW15994   4.456   0.634   1.064
 5113SOL    HW115995   4.515   0.608   0.988
 5113SOL    HW215996   4.428   0.730   1.053
 5114SOL     OW15997   4.031   0.063   0.618
 5114SOL    HW115998   4.020   0.157   0.651
 5114SOL    HW215999   4.026   0.000   0.695
 5115SOL     OW16000   5.346   0.367   0.374
 5115SOL    HW116001   5.348   0.291   0.438
 5115SOL    HW216002   5.298   0.444   0.414
 5116SOL     OW16003   4.747   0.766   0.966
 5116SOL    HW116004   4.762   0.787   1.062
 5116SOL    HW216005   4.717   0.671   0.957
 5117SOL     OW16006   4.704   1.573   1.700
 5117SOL    HW116007   4.684   1.617   1.612
 5117SOL    HW216008   4.743   1.482   1.684
 5118SOL     OW16009   4.074   0.898   1.804
 5118SOL    HW116010   4.150   0.942   1.852
 5118SOL    HW216011   4.109   0.851   1.722
 5119SOL     OW16012   5.027   0.838   0.042
 5119SOL    HW116013   5.061   0.745   0.057
 5119SOL    HW216014   5.045   0.865  -0.053
 5120SOL     OW16015   4.792   1.333   0.849
 5120SOL    HW116016   4.799   1.249   0.794
 5120SOL    HW216017   4.854   1.402   0.813
 5121SOL     OW16018   4.043   0.810   0.949
 5121SOL    HW116019   4.136   0.846   0.954
 5121SOL    HW216020   4.037   0.725   1.001
 5122SOL     OW16021   4.063   0.509   1.006
 5122SOL    HW116022   4.011   0.426   0.989
 5122SOL    HW216023   4.140   0.514   0.942
 5123SOL     OW16024   4.862   0.380   1.678
 5123SOL    HW116025   4.817   0.443   1.742
 5123SOL    HW216026   4.955   0.411   1.661
 5124SOL     OW16027   4.884   0.207   1.477
 5124SOL    HW116028   4.884   0.271   1.554
 5124SOL    HW216029   4.912   0.255   1.394
 5125SOL     OW16030   3.732   1.326   0.200
 5125SOL    HW116031   3.639   1.347   0.169
 5125SOL    HW216032   3.742   1.227   0.213
 5126SOL     OW16033   3.812   1.801   0.927
 5126SOL    HW116034   3.770   1.715   0.900
 5126SOL    HW216035   3.906   1.804   0.893
 5127SOL     OW16036   4.228   1.568   0.910
 5127SOL    HW116037   4.294   1.642   0.919
 5127SOL    HW216038   4.272   1.489   0.868
 5128SOL     OW16039   4.726   0.796   1.238
 5128SOL    HW116040   4.767   0.764   1.324
 5128SOL    HW216041   4.630   0.769   1.235
 5129SOL     OW16042   3.764   0.544   1.114
 5129SOL    HW116043   3.849   0.511   1.073
 5129SOL    HW216044   3.777   0.559   1.212
 5130SOL     OW16045   3.913   0.520   1.722
 5130SOL    HW116046   3.972   0.480   1.652
 5130SOL    HW216047   3.855   0.591   1.681
 5131SOL     OW16048   5.093   0.950   1.660
 5131SOL    HW116049   5.132   1.039   1.680
 5131SOL    HW216050   5.103   0.930   1.563
 5132SOL     OW16051   4.539   0.572   0.325
 5132SOL    HW116052   4.546   0.483   0.279
 5132SOL    HW216053   4.445   0.606   0.317
 5133SOL     OW16054   3.976   1.564   1.744
 5133SOL    HW116055   3.946   1.621   1.820
 5133SOL    HW216056   3.969   1.467   1.770
 5134SOL     OW16057   4.395   0.464   1.269
 5134SOL    HW116058   4.361   0.375   1.239
 5134SOL    HW216059   4.421   0.518   1.189
 5135SOL     OW16060   4.654   1.678   1.465
 5135SOL    HW116061   4.630   1.660   1.370
 5135SOL    HW216062   4.684   1.772   1.475
 5136SOL     OW16063   4.197   0.500   0.191
 5136SOL    HW116064   4.258   0.580   0.195
 5136SOL    HW216065   4.102   0.531   0.198
 5137SOL     OW16066   3.883   1.137   1.466
 5137SOL    HW116067   3.905   1.076   1.542
 5137SOL    HW216068   3.893   1.088   1.380
 5138SOL     OW16069   5.071   1.059   1.234
 5138SOL    HW116070   5.095   0.996   1.160
 5138SOL    HW216071   4.981   1.099   1.216
 5139SOL     OW16072   5.026   0.855   0.309
 5139SOL    HW116073   4.940   0.824   0.351
 5139SOL    HW216074   5.022   0.841   0.210
 5140SOL     OW16075   4.976   1.731   1.128
 5140SOL    HW116076   5.060   1.736   1.074
 5140SOL    HW216077   4.953   1.635   1.146
 5141SOL     OW16078   3.807   1.258   1.022
 5141SOL    HW116079   3.802   1.257   1.122
 5141SOL    HW216080   3.724   1.217   0.984
 5142SOL     OW16081   4.412   1.662   1.716
 5142SOL    HW116082   4.356   1.743   1.725
 5142SOL    HW216083   4.464   1.666   1.630
 5143SOL     OW16084   4.627   0.086   0.133
 5143SOL    HW116085   4.678   0.087   0.047
 5143SOL    HW216086   4.683   0.044   0.204
 5144SOL     OW16087   5.112   1.573   0.477
 5144SOL    HW116088   5.179   1.585   0.403
 5144SOL    HW216089   5.072   1.662   0.500
 5145SOL     OW16090   3.854   1.794   1.851
 5145SOL    HW116091   3.813   1.720   1.904
 5145SOL    HW216092   3.918   1.845   1.909
 5146SOL     OW16093   5.004   0.927   0.672
 5146SOL    HW116094   5.064   0.846   0.674
 5146SOL    HW216095   5.044   0.996   0.612
 5147SOL     OW16096   4.554   1.273   1.422
 5147SOL    HW116097   4.549   1.306   1.517
 5147SOL    HW216098   4.468   1.292   1.376
 5148SOL     OW16099   4.396   1.616   0.154
 5148SOL    HW116100   4.405   1.626   0.055
 5148SOL    HW216101   4.356   1.527   0.175
 5149SOL     OW16102   3.987   0.326   0.720
 5149SOL    HW116103   3.908   0.377   0.686
 5149SOL    HW216104   3.978   0.311   0.818
 5150SOL     OW16105   4.918   1.612   0.031
 5150SOL    HW116106   4.924   1.519   0.068
 5150SOL    HW216107   4.859   1.612  -0.049
 5151SOL     OW16108   4.546   1.002   1.372
 5151SOL    HW116109   4.586   1.001   1.280
 5151SOL    HW216110   4.556   1.094   1.412
 5152SOL     OW16111   4.640   0.910   0.291
 5152SOL    HW116112   4.703   0.948   0.223
 5152SOL    HW216113   4.680   0.827   0.330
 5153SOL     OW16114   4.096   1.288   1.490
 5153SOL    HW116115   4.083   1.381   1.456
 5153SOL    HW216116   4.012   1.236   1.477
 5154SOL     OW16117   4.763   1.098   0.696
 5154SOL    HW116118   4.693   1.051   0.750
 5154SOL    HW216119   4.822   1.030   0.653
 5155SOL     OW16120   4.738   0.236   0.971
 5155SOL    HW116121   4.730   0.200   0.878
 5155SOL    HW216122   4.736   0.160   1.036
 5156SOL     OW16123   4.314   1.487   0.491
 5156SOL    HW116124   4.356   1.429   0.421
 5156SOL    HW216125   4.270   1.566   0.447
 5157SOL     OW16126   3.979   1.348   0.290
 5157SOL    HW116127   3.883   1.349   0.263
 5157SOL    HW216128   3.991   1.401   0.374
 5158SOL     OW16129   3.829   1.013   1.726
 5158SOL    HW116130   3.752   0.980   1.780
 5158SOL    HW216131   3.914   0.983   1.768
 5159SOL     OW16132   4.396   0.203   1.489
 5159SOL    HW116133   4.486   0.187   1.449
 5159SOL    HW216134   4.404   0.208   1.588
 5160SOL     OW16135   3.799   0.345   0.033
 5160SOL    HW116136   3.707   0.317   0.004
 5160SOL    HW216137   3.830   0.422  -0.023
 5161SOL     OW16138   5.164   0.856   1.398
 5161SOL    HW116139   5.107   0.908   1.335
 5161SOL    HW216140   5.260   0.868   1.374
 5162SOL     OW16141   3.796   0.166   0.318
 5162SOL    HW116142   3.779   0.249   0.264
 5162SOL    HW216143   3.886   0.129   0.296
 5163SOL     OW16144   4.907   1.335   0.119
 5163SOL    HW116145   4.808   1.324   0.121
 5163SOL    HW216146   4.941   1.350   0.212
 5164SOL     OW16147   4.337   0.842   1.431
 5164SOL    HW116148   4.393   0.923   1.414
 5164SOL    HW216149   4.396   0.762   1.434
 5165SOL     OW16150   4.440   0.565   1.708
 5165SOL    HW116151   4.459   0.630   1.782
 5165SOL    HW216152   4.500   0.485   1.717
 5166SOL     OW16153   5.174   1.220   1.633
 5166SOL    HW116154   5.165   1.210   1.732
 5166SOL    HW216155   5.270   1.213   1.607
 5167SOL     OW16156   4.114   1.741   1.560
 5167SOL    HW116157   4.023   1.782   1.558
 5167SOL    HW216158   4.107   1.647   1.592
 5168SOL     OW16159   4.949   0.325   0.449
 5168SOL    HW116160   5.014   0.251   0.438
 5168SOL    HW216161   4.969   0.375   0.533
 5169SOL     OW16162   4.318   0.745   0.652
 5169SOL    HW116163   4.368   0.830   0.633
 5169SOL    HW216164   4.230   0.747   0.604
 5170SOL     OW16165   4.583   1.374   0.016
 5170SOL    HW116166   4.537   1.389   0.104
 5170SOL    HW216167   4.627   1.459  -0.014
 5171SOL     OW16168   4.385   1.790   0.953
 5171SOL    HW116169   4.339   1.878   0.940
 5171SOL    HW216170   4.484   1.802   0.946
 5172SOL     OW16171   4.583   0.956   0.861
 5172SOL    HW116172   4.637   0.887   0.909
 5172SOL    HW216173   4.551   1.025   0.927
 5173SOL     OW16174   4.807   0.984   0.087
 5173SOL    HW116175   4.784   1.037   0.005
 5173SOL    HW216176   4.888   0.928   0.068
 5174SOL     OW16177   3.945   1.314   1.844
 5174SOL    HW116178   3.880   1.241   1.823
 5174SOL    HW216179   3.949   1.328   1.942
 5175SOL     OW16180   3.803   1.240   0.653
 5175SOL    HW116181   3.802   1.193   0.741
 5175SOL    HW216182   3.885   1.212   0.602
 5176SOL     OW16183   4.396   1.391   1.624
 5176SOL    HW116184   4.318   1.341   1.662
 5176SOL    HW216185   4.393   1.486   1.655
 5177SOL     OW16186   4.152   0.424   0.520
 5177SOL    HW116187   4.182   0.352   0.458
 5177SOL    HW216188   4.113   0.384   0.603
 5178SOL     OW16189   5.429   1.487   1.104
 5178SOL    HW116190   5.336   1.462   1.077
 5178SOL    HW216191   5.455   1.437   1.186
 5179SOL     OW16192   4.041   0.547   1.280
 5179SOL    HW116193   4.079   0.488   1.352
 5179SOL    HW216194   4.081   0.521   1.192
 5180SOL     OW16195   4.536   1.586   0.687
 5180SOL    HW116196   4.568   1.596   0.593
 5180SOL    HW216197   4.457   1.524   0.689
 5181SOL     OW16198   5.148   0.214   1.112
 5181SOL    HW116199   5.200   0.149   1.167
 5181SOL    HW216200   5.099   0.277   1.173
 5182SOL     OW16201   4.725   0.034   1.154
 5182SOL    HW116202   4.662  -0.038   1.123
 5182SOL    HW216203   4.818  -0.002   1.154
 5183SOL     OW16204   4.494   1.330   0.301
 5183SOL    HW116205   4.448   1.243   0.318
 5183SOL    HW216206   4.585   1.327   0.342
 5184SOL     OW16207   4.342   1.567   1.284
 5184SOL    HW116208   4.337   1.649   1.341
 5184SOL    HW216209   4.431   1.564   1.239
 5185SOL     OW16210   5.076   0.052   0.168
 5185SOL    HW116211   5.111   0.011   0.084
 5185SOL    HW216212   4.986   0.014   0.188
 5186SOL     OW16213   5.024   0.453   0.691
 5186SOL    HW116214   4.965   0.533   0.695
 5186SOL    HW216215   5.039   0.418   0.784
 5187SOL     OW16216   5.317   0.221   0.882
 5187SOL    HW116217   5.233   0.220   0.936
 5187SOL    HW216218   5.319   0.304   0.826
 5188SOL     OW16219   3.763   1.077   0.300
 5188SOL    HW116220   3.862   1.066   0.291
 5188SOL    HW216221   3.723   0.991   0.332
 5189SOL     OW16222   4.599   1.646   0.337
 5189SOL    HW116223   4.522   1.611   0.283
 5189SOL    HW216224   4.567   1.717   0.399
 5190SOL     OW16225   3.954   0.628   1.975
 5190SOL    HW116226   3.861   0.626   2.012
 5190SOL    HW216227   3.955   0.589   1.883
 5191SOL     OW16228   3.949   0.275   2.858
 5191SOL    HW116229   3.984   0.258   2.950
 5191SOL    HW216230   3.861   0.230   2.846
 5192SOL     OW16231   3.743   0.368   2.509
 5192SOL    HW116232   3.661   0.411   2.548
 5192SOL    HW216233   3.715   0.295   2.446
 5193SOL     OW16234   4.293   1.275   3.027
 5193SOL    HW116235   4.200   1.268   2.990
 5193SOL    HW216236   4.304   1.364   3.071
 5194SOL     OW16237   5.279   1.511   2.565
 5194SOL    HW116238   5.222   1.495   2.646
 5194SOL    HW216239   5.220   1.521   2.485
 5195SOL     OW16240   4.859   0.703   2.579
 5195SOL    HW116241   4.916   0.781   2.554
 5195SOL    HW216242   4.799   0.729   2.655
 5196SOL     OW16243   4.492   1.144   2.885
 5196SOL    HW116244   4.414   1.161   2.945
 5196SOL    HW216245   4.526   1.231   2.849
 5197SOL     OW16246   4.574   0.798   3.685
 5197SOL    HW116247   4.570   0.874   3.750
 5197SOL    HW216248   4.596   0.834   3.594
 5198SOL     OW16249   4.409   1.012   2.527
 5198SOL    HW116250   4.478   0.996   2.597
 5198SOL    HW216251   4.336   1.069   2.565
 5199SOL     OW16252   4.410   1.161   3.665
 5199SOL    HW116253   4.470   1.240   3.679
 5199SOL    HW216254   4.324   1.192   3.624
 5200SOL     OW16255   4.059   1.435   2.923
 5200SOL    HW116256   3.981   1.404   2.870
 5200SOL    HW216257   4.117   1.493   2.866
 5201SOL     OW16258   5.184   1.505   3.201
 5201SOL    HW116259   5.208   1.599   3.227
 5201SOL    HW216260   5.168   1.451   3.283
 5202SOL     OW16261   4.162   0.392   3.361
 5202SOL    HW116262   4.244   0.336   3.370
 5202SOL    HW216263   4.081   0.334   3.365
 5203SOL     OW16264   3.955   1.713   2.345
 5203SOL    HW116265   3.989   1.790   2.399
 5203SOL    HW216266   3.999   1.713   2.255
 5204SOL     OW16267   4.851   1.341   3.552
 5204SOL    HW116268   4.898   1.341   3.640
 5204SOL    HW216269   4.803   1.254   3.541
 5205SOL     OW16270   3.954   1.434   2.400
 5205SOL    HW116271   3.928   1.530   2.400
 5205SOL    HW216272   3.883   1.380   2.445
 5206SOL     OW16273   3.964   1.091   2.748
 5206SOL    HW116274   3.978   1.007   2.800
 5206SOL    HW216275   3.909   1.155   2.803
 5207SOL     OW16276   4.344   1.786   3.301
 5207SOL    HW116277   4.252   1.769   3.336
 5207SOL    HW216278   4.372   1.878   3.327
 5208SOL     OW16279   4.330   0.964   1.985
 5208SOL    HW116280   4.337   1.048   1.931
 5208SOL    HW216281   4.376   0.977   2.073
 5209SOL     OW16282   5.318   0.114   3.342
 5209SOL    HW116283   5.300   0.181   3.270
 5209SOL    HW216284   5.315   0.160   3.431
 5210SOL     OW16285   3.846   0.643   2.425
 5210SOL    HW116286   3.801   0.555   2.442
 5210SOL    HW216287   3.845   0.697   2.509
 5211SOL     OW16288   3.751   1.596   1.979
 5211SOL    HW116289   3.732   1.500   2.000
 5211SOL    HW216290   3.718   1.654   2.054
 5212SOL     OW16291   5.413   0.922   2.474
 5212SOL    HW116292   5.508   0.893   2.482
 5212SOL    HW216293   5.405   0.987   2.399
 5213SOL     OW16294   3.837   0.737   3.459
 5213SOL    HW116295   3.925   0.724   3.504
 5213SOL    HW216296   3.824   0.834   3.437
 5214SOL     OW16297   4.337   1.365   2.588
 5214SOL    HW116298   4.288   1.278   2.597
 5214SOL    HW216299   4.314   1.408   2.501
 5215SOL     OW16300   5.017   1.228   3.285
 5215SOL    HW116301   5.054   1.155   3.227
 5215SOL    HW216302   5.069   1.233   3.370
 5216SOL     OW16303   4.533   0.004   2.364
 5216SOL    HW116304   4.573   0.095   2.355
 5216SOL    HW216305   4.433   0.012   2.370
 5217SOL     OW16306   3.921   0.976   3.126
 5217SOL    HW116307   4.010   0.931   3.112
 5217SOL    HW216308   3.848   0.911   3.107
 5218SOL     OW16309   4.911   1.792   3.478
 5218SOL    HW116310   4.935   1.852   3.402
 5218SOL    HW216311   4.918   1.697   3.448
 5219SOL     OW16312   4.041   0.251   3.663
 5219SOL    HW116313   4.112   0.322   3.669
 5219SOL    HW216314   3.953   0.290   3.691
 5220SOL     OW16315   5.190   1.417   2.815
 5220SOL    HW116316   5.131   1.423   2.895
 5220SOL    HW216317   5.175   1.329   2.769
 5221SOL     OW16318   4.322   0.729   2.132
 5221SOL    HW116319   4.346   0.798   2.064
 5221SOL    HW216320   4.244   0.762   2.186
 5222SOL     OW16321   5.005   0.345   2.806
 5222SOL    HW116322   4.919   0.295   2.793
 5222SOL    HW216323   5.067   0.291   2.862
 5223SOL     OW16324   4.531   0.605   3.327
 5223SOL    HW116325   4.484   0.602   3.416
 5223SOL    HW216326   4.480   0.550   3.261
 5224SOL     OW16327   5.118   0.469   3.536
 5224SOL    HW116328   5.098   0.512   3.624
 5224SOL    HW216329   5.196   0.407   3.545
 5225SOL     OW16330   4.697   0.890   3.434
 5225SOL    HW116331   4.743   0.806   3.405
 5225SOL    HW216332   4.641   0.924   3.359
 5226SOL     OW16333   4.715   0.410   3.104
 5226SOL    HW116334   4.638   0.444   3.158
 5226SOL    HW216335   4.681   0.359   3.025
 5227SOL     OW16336   4.765   0.701   2.291
 5227SOL    HW116337   4.791   0.697   2.387
 5227SOL    HW216338   4.680   0.650   2.277
 5228SOL     OW16339   3.800   0.811   2.651
 5228SOL    HW116340   3.899   0.799   2.660
 5228SOL    HW216341   3.776   0.906   2.672
 5229SOL     OW16342   3.854   1.821   3.433
 5229SOL    HW116343   3.844   1.806   3.532
 5229SOL    HW216344   3.768   1.857   3.397
 5230SOL     OW16345   4.589   0.348   2.057
 5230SOL    HW116346   4.648   0.411   2.008
 5230SOL    HW216347   4.608   0.254   2.028
 5231SOL     OW16348   5.086   1.144   2.407
 5231SOL    HW116349   5.169   1.115   2.359
 5231SOL    HW216350   5.037   1.211   2.351
 5232SOL     OW16351   4.274   0.196   2.747
 5232SOL    HW116352   4.269   0.191   2.847
 5232SOL    HW216353   4.276   0.292   2.718
 5233SOL     OW16354   4.732   1.456   2.339
 5233SOL    HW116355   4.686   1.528   2.287
 5233SOL    HW216356   4.728   1.476   2.437
 5234SOL     OW16357   4.075   1.801   2.715
 5234SOL    HW116358   4.125   1.715   2.721
 5234SOL    HW216359   4.140   1.878   2.712
 5235SOL     OW16360   4.951   1.550   3.368
 5235SOL    HW116361   4.957   1.473   3.432
 5235SOL    HW216362   4.899   1.524   3.288
 5236SOL     OW16363   4.045   0.943   2.104
 5236SOL    HW116364   4.127   0.982   2.062
 5236SOL    HW216365   4.018   0.861   2.055
 5237SOL     OW16366   4.185   1.266   3.589
 5237SOL    HW116367   4.135   1.267   3.503
 5237SOL    HW216368   4.122   1.248   3.665
 5238SOL     OW16369   4.835   1.776   2.099
 5238SOL    HW116370   4.775   1.714   2.149
 5238SOL    HW216371   4.866   1.732   2.014
 5239SOL     OW16372   3.926   0.285   3.360
 5239SOL    HW116373   3.846   0.345   3.347
 5239SOL    HW216374   3.916   0.236   3.446
 5240SOL     OW16375   4.188   1.743   2.185
 5240SOL    HW116376   4.221   1.782   2.271
 5240SOL    HW216377   4.264   1.736   2.120
 5241SOL     OW16378   5.124   0.107   2.288
 5241SOL    HW116379   5.100   0.070   2.198
 5241SOL    HW216380   5.223   0.123   2.292
 5242SOL     OW16381   3.973   1.785   3.103
 5242SOL    HW116382   4.030   1.720   3.153
 5242SOL    HW216383   3.957   1.752   3.010
 5243SOL     OW16384   4.664   1.698   2.766
 5243SOL    HW116385   4.744   1.641   2.787
 5243SOL    HW216386   4.615   1.658   2.689
 5244SOL     OW16387   4.106   0.700   2.342
 5244SOL    HW116388   4.151   0.610   2.339
 5244SOL    HW216389   4.012   0.689   2.375
 5245SOL     OW16390   4.338   0.122   1.979
 5245SOL    HW116391   4.436   0.100   1.986
 5245SOL    HW216392   4.307   0.105   1.886
 5246SOL     OW16393   4.505   0.264   3.611
 5246SOL    HW116394   4.572   0.203   3.654
 5246SOL    HW216395   4.432   0.283   3.676
 5247SOL     OW16396   4.612   1.514   3.057
 5247SOL    HW116397   4.589   1.489   2.963
 5247SOL    HW216398   4.673   1.445   3.096
 5248SOL     OW16399   5.075   0.590   3.295
 5248SOL    HW116400   5.103   0.547   3.380
 5248SOL    HW216401   5.100   0.686   3.296
 5249SOL     OW16402   4.527   1.402   2.786
 5249SOL    HW116403   4.617   1.416   2.744
 5249SOL    HW216404   4.456   1.404   2.715
 5250SOL     OW16405   4.646   0.503   2.761
 5250SOL    HW116406   4.621   0.494   2.665
 5250SOL    HW216407   4.694   0.421   2.792
 5251SOL     OW16408   4.263   0.064   2.374
 5251SOL    HW116409   4.182   0.065   2.432
 5251SOL    HW216410   4.266   0.147   2.319
 5252SOL     OW16411   5.158   1.188   1.903
 5252SOL    HW116412   5.190   1.112   1.960
 5252SOL    HW216413   5.066   1.215   1.933
 5253SOL     OW16414   4.021   0.035   2.033
 5253SOL    HW116415   4.070   0.119   2.012
 5253SOL    HW216416   4.083  -0.030   2.078
 5254SOL     OW16417   4.659   0.236   2.342
 5254SOL    HW116418   4.611   0.277   2.264
 5254SOL    HW216419   4.758   0.234   2.323
 5255SOL     OW16420   4.800   0.683   3.326
 5255SOL    HW116421   4.720   0.622   3.329
 5255SOL    HW216422   4.881   0.630   3.302
 5256SOL     OW16423   4.951   1.570   2.655
 5256SOL    HW116424   4.972   1.644   2.590
 5256SOL    HW216425   5.019   1.570   2.728
 5257SOL     OW16426   4.183   1.152   2.603
 5257SOL    HW116427   4.112   1.125   2.668
 5257SOL    HW216428   4.157   1.124   2.510
 5258SOL     OW16429   4.995   1.797   2.453
 5258SOL    HW116430   5.039   1.861   2.389
 5258SOL    HW216431   4.945   1.849   2.523
 5259SOL     OW16432   4.756   0.549   1.878
 5259SOL    HW116433   4.715   0.631   1.839
 5259SOL    HW216434   4.820   0.575   1.951
 5260SOL     OW16435   3.802   0.556   3.248
 5260SOL    HW116436   3.894   0.555   3.207
 5260SOL    HW216437   3.796   0.630   3.315
 5261SOL     OW16438   4.285   0.222   3.009
 5261SOL    HW116439   4.323   0.138   3.046
 5261SOL    HW216440   4.197   0.241   3.053
 5262SOL     OW16441   4.590   0.454   2.504
 5262SOL    HW116442   4.558   0.526   2.442
 5262SOL    HW216443   4.614   0.373   2.451
 5263SOL     OW16444   4.741   0.039   2.615
 5263SOL    HW116445   4.669   0.044   2.546
 5263SOL    HW216446   4.717  -0.030   2.684
 5264SOL     OW16447   5.153   1.173   2.729
 5264SOL    HW116448   5.098   1.089   2.722
 5264SOL    HW216449   5.179   1.202   2.637
 5265SOL     OW16450   4.212   1.385   2.036
 5265SOL    HW116451   4.125   1.370   2.083
 5265SOL    HW216452   4.195   1.411   1.941
 5266SOL     OW16453   5.114   0.575   1.940
 5266SOL    HW116454   5.060   0.554   2.021
 5266SOL    HW216455   5.205   0.534   1.949
 5267SOL     OW16456   4.251   0.256   2.190
 5267SOL    HW116457   4.278   0.197   2.115
 5267SOL    HW216458   4.251   0.351   2.159
 5268SOL     OW16459   4.788   1.347   3.202
 5268SOL    HW116460   4.708   1.324   3.257
 5268SOL    HW216461   4.871   1.321   3.251
 5269SOL     OW16462   5.316   1.629   3.487
 5269SOL    HW116463   5.343   1.663   3.397
 5269SOL    HW216464   5.395   1.591   3.533
 5270SOL     OW16465   4.835   1.195   2.962
 5270SOL    HW116466   4.795   1.239   3.043
 5270SOL    HW216467   4.794   1.232   2.879
 5271SOL     OW16468   4.639   0.089   3.264
 5271SOL    HW116469   4.664   0.069   3.169
 5271SOL    HW216470   4.711   0.145   3.306
 5272SOL     OW16471   4.704   1.116   3.581
 5272SOL    HW116472   4.605   1.122   3.591
 5272SOL    HW216473   4.727   1.036   3.525
 5273SOL     OW16474   4.429   1.050   2.230
 5273SOL    HW116475   4.415   1.057   2.329
 5273SOL    HW216476   4.513   0.999   2.212
 5274SOL     OW16477   4.134   0.813   3.113
 5274SOL    HW116478   4.220   0.825   3.163
 5274SOL    HW216479   4.092   0.726   3.140
 5275SOL     OW16480   4.998   0.386   3.124
 5275SOL    HW116481   5.019   0.460   3.188
 5275SOL    HW216482   4.909   0.403   3.081
 5276SOL     OW16483   3.788   1.564   3.193
 5276SOL    HW116484   3.742   1.646   3.159
 5276SOL    HW216485   3.886   1.583   3.202
 5277SOL     OW16486   4.091   1.100   2.363
 5277SOL    HW116487   4.084   1.183   2.307
 5277SOL    HW216488   4.095   1.020   2.303
 5278SOL     OW16489   4.290   0.537   2.727
 5278SOL    HW116490   4.302   0.603   2.653
 5278SOL    HW216491   4.336   0.571   2.810
 5279SOL     OW16492   4.976   1.348   2.250
 5279SOL    HW116493   5.026   1.425   2.290
 5279SOL    HW216494   4.881   1.350   2.282
 5280SOL     OW16495   4.996   1.445   3.004
 5280SOL    HW116496   5.043   1.458   3.091
 5280SOL    HW216497   4.930   1.371   3.013
 5281SOL     OW16498   4.078   1.510   3.191
 5281SOL    HW116499   4.057   1.466   3.104
 5281SOL    HW216500   4.175   1.536   3.194
 5282SOL     OW16501   4.126   0.751   3.460
 5282SOL    HW116502   4.194   0.806   3.413
 5282SOL    HW216503   4.166   0.663   3.487
 5283SOL     OW16504   4.737   0.105   3.632
 5283SOL    HW116505   4.743   0.190   3.580
 5283SOL    HW216506   4.769   0.029   3.575
 5284SOL     OW16507   4.228   0.050   3.602
 5284SOL    HW116508   4.186  -0.007   3.532
 5284SOL    HW216509   4.162   0.119   3.634
 5285SOL     OW16510   4.297   0.870   2.891
 5285SOL    HW116511   4.341   0.959   2.882
 5285SOL    HW216512   4.234   0.870   2.968
 5286SOL     OW16513   5.084   0.862   2.907
 5286SOL    HW116514   5.009   0.862   2.841
 5286SOL    HW216515   5.121   0.770   2.916
 5287SOL     OW16516   4.933   0.525   2.137
 5287SOL    HW116517   4.946   0.441   2.191
 5287SOL    HW216518   4.904   0.599   2.197
 5288SOL     OW16519   4.031   0.213   3.093
 5288SOL    HW116520   4.008   0.250   3.183
 5288SOL    HW216521   4.001   0.118   3.087
 5289SOL     OW16522   3.761   1.310   3.144
 5289SOL    HW116523   3.814   1.261   3.212
 5289SOL    HW216524   3.783   1.408   3.149
 5290SOL     OW16525   4.456   0.634   2.926
 5290SOL    HW116526   4.515   0.608   2.850
 5290SOL    HW216527   4.428   0.730   2.915
 5291SOL     OW16528   4.031   0.063   2.480
 5291SOL    HW116529   4.020   0.157   2.513
 5291SOL    HW216530   4.026   0.000   2.557
 5292SOL     OW16531   5.346   0.367   2.236
 5292SOL    HW116532   5.348   0.291   2.300
 5292SOL    HW216533   5.298   0.444   2.276
 5293SOL     OW16534   4.747   0.766   2.828
 5293SOL    HW116535   4.762   0.787   2.924
 5293SOL    HW216536   4.717   0.671   2.819
 5294SOL     OW16537   4.704   1.573   3.562
 5294SOL    HW116538   4.684   1.617   3.474
 5294SOL    HW216539   4.743   1.482   3.546
 5295SOL     OW16540   4.074   0.898   3.666
 5295SOL    HW116541   4.150   0.942   3.714
 5295SOL    HW216542   4.109   0.851   3.584
 5296SOL     OW16543   5.027   0.838   1.904
 5296SOL    HW116544   5.061   0.745   1.919
 5296SOL    HW216545   5.045   0.865   1.809
 5297SOL     OW16546   4.792   1.333   2.711
 5297SOL    HW116547   4.799   1.249   2.656
 5297SOL    HW216548   4.854   1.402   2.675
 5298SOL     OW16549   4.043   0.810   2.811
 5298SOL    HW116550   4.136   0.846   2.816
 5298SOL    HW216551   4.037   0.725   2.863
 5299SOL     OW16552   4.063   0.509   2.868
 5299SOL    HW116553   4.011   0.426   2.851
 5299SOL    HW216554   4.140   0.514   2.804
 5300SOL     OW16555   4.862   0.380   3.540
 5300SOL    HW116556   4.817   0.443   3.604
 5300SOL    HW216557   4.955   0.411   3.523
 5301SOL     OW16558   4.884   0.207   3.339
 5301SOL    HW116559   4.884   0.271   3.416
 5301SOL    HW216560   4.912   0.255   3.256
 5302SOL     OW16561   3.732   1.326   2.062
 5302SOL    HW116562   3.639   1.347   2.031
 5302SOL    HW216563   3.742   1.227   2.075
 5303SOL     OW16564   3.812   1.801   2.789
 5303SOL    HW116565   3.770   1.715   2.762
 5303SOL    HW216566   3.906   1.804   2.755
 5304SOL     OW16567   4.228   1.568   2.772
 5304SOL    HW116568   4.294   1.642   2.781
 5304SOL    HW216569   4.272   1.489   2.730
 5305SOL     OW16570   4.726   0.796   3.100
 5305SOL    HW116571   4.767   0.764   3.186
 5305SOL    HW216572   4.630   0.769   3.097
 5306SOL     OW16573   3.764   0.544   2.976
 5306SOL    HW116574   3.849   0.511   2.935
 5306SOL    HW216575   3.777   0.559   3.074
 5307SOL     OW16576   3.913   0.520   3.584
 5307SOL    HW116577   3.972   0.480   3.514
 5307SOL    HW216578   3.855   0.591   3.543
 5308SOL     OW16579   5.093   0.950   3.522
 5308SOL    HW116580   5.132   1.039   3.542
 5308SOL    HW216581   5.103   0.930   3.425
 5309SOL     OW16582   4.539   0.572   2.187
 5309SOL    HW116583   4.546   0.483   2.141
 5309SOL    HW216584   4.445   0.606   2.179
 5310SOL     OW16585   3.976   1.564   3.606
 5310SOL    HW116586   3.946   1.621   3.682
 5310SOL    HW216587   3.969   1.467   3.632
 5311SOL     OW16588   4.395   0.464   3.131
 5311SOL    HW116589   4.361   0.375   3.101
 5311SOL    HW216590   4.421   0.518   3.051
 5312SOL     OW16591   4.654   1.678   3.327
 5312SOL    HW116592   4.630   1.660   3.232
 5312SOL    HW216593   4.684   1.772   3.337
 5313SOL     OW16594   4.197   0.500   2.053
 5313SOL    HW116595   4.258   0.580   2.057
 5313SOL    HW216596   4.102   0.531   2.060
 5314SOL     OW16597   3.883   1.137   3.328
 5314SOL    HW116598   3.905   1.076   3.404
 5314SOL    HW216599   3.893   1.088   3.242
 5315SOL     OW16600   5.071   1.059   3.096
 5315SOL    HW116601   5.095   0.996   3.022
 5315SOL    HW216602   4.981   1.099   3.078
 5316SOL     OW16603   5.026   0.855   2.171
 5316SOL    HW116604   4.940   0.824   2.213
 5316SOL    HW216605   5.022   0.841   2.072
 5317SOL     OW16606   4.976   1.731   2.990
 5317SOL    HW116607   5.060   1.736   2.936
 5317SOL    HW216608   4.953   1.635   3.008
 5318SOL     OW16609   3.807   1.258   2.884
 5318SOL    HW116610   3.802   1.257   2.984
 5318SOL    HW216611   3.724   1.217   2.846
 5319SOL     OW16612   4.412   1.662   3.578
 5319SOL    HW116613   4.356   1.743   3.587
 5319SOL    HW216614   4.464   1.666   3.492
 5320SOL     OW16615   5.112   1.573   2.339
 5320SOL    HW116616   5.179   1.585   2.265
 5320SOL    HW216617   5.072   1.662   2.362
 5321SOL     OW16618   3.854   1.794   3.713
 5321SOL    HW116619   3.813   1.720   3.766
 5321SOL    HW216620   3.918   1.845   3.771
 5322SOL     OW16621   5.004   0.927   2.534
 5322SOL    HW116622   5.064   0.846   2.536
 5322SOL    HW216623   5.044   0.996   2.474
 5323SOL     OW16624   4.554   1.273   3.284
 5323SOL    HW116625   4.549   1.306   3.379
 5323SOL    HW216626   4.468   1.292   3.238
 5324SOL     OW16627   4.396   1.616   2.016
 5324SOL    HW116628   4.405   1.626   1.917
 5324SOL    HW216629   4.356   1.527   2.037
 5325SOL     OW16630   3.987   0.326   2.582
 5325SOL    HW116631   3.908   0.377   2.548
 5325SOL    HW216632   3.978   0.311   2.680
 5326SOL     OW16633   4.918   1.612   1.893
 5326SOL    HW116634   4.924   1.519   1.930
 5326SOL    HW216635   4.859   1.612   1.813
 5327SOL     OW16636   4.546   1.002   3.234
 5327SOL    HW116637   4.586   1.001   3.142
 5327SOL    HW216638   4.556   1.094   3.274
 5328SOL     OW16639   4.640   0.910   2.153
 5328SOL    HW116640   4.703   0.948   2.085
 5328SOL    HW216641   4.680   0.827   2.192
 5329SOL     OW16642   4.096   1.288   3.352
 5329SOL    HW116643   4.083   1.381   3.318
 5329SOL    HW216644   4.012   1.236   3.339
 5330SOL     OW16645   4.763   1.098   2.558
 5330SOL    HW116646   4.693   1.051   2.612
 5330SOL    HW216647   4.822   1.030   2.515
 5331SOL     OW16648   4.738   0.236   2.833
 5331SOL    HW116649   4.730   0.200   2.740
 5331SOL    HW216650   4.736   0.160   2.898
 5332SOL     OW16651   4.314   1.487   2.353
 5332SOL    HW116652   4.356   1.429   2.283
 5332SOL    HW216653   4.270   1.566   2.309
 5333SOL     OW16654   3.979   1.348   2.152
 5333SOL    HW116655   3.883   1.349   2.125
 5333SOL    HW216656   3.991   1.401   2.236
 5334SOL     OW16657   3.829   1.013   3.588
 5334SOL    HW116658   3.752   0.980   3.642
 5334SOL    HW216659   3.914   0.983   3.630
 5335SOL     OW16660   4.396   0.203   3.351
 5335SOL    HW116661   4.486   0.187   3.311
 5335SOL    HW216662   4.404   0.208   3.450
 5336SOL     OW16663   3.799   0.345   1.895
 5336SOL    HW116664   3.707   0.317   1.866
 5336SOL    HW216665   3.830   0.422   1.839
 5337SOL     OW16666   5.164   0.856   3.260
 5337SOL    HW116667   5.107   0.908   3.197
 5337SOL    HW216668   5.260   0.868   3.236
 5338SOL     OW16669   3.796   0.166   2.180
 5338SOL    HW116670   3.779   0.249   2.126
 5338SOL    HW216671   3.886   0.129   2.158
 5339SOL     OW16672   4.907   1.335   1.981
 5339SOL    HW116673   4.808   1.324   1.983
 5339SOL    HW216674   4.941   1.350   2.074
 5340SOL     OW16675   4.337   0.842   3.293
 5340SOL    HW116676   4.393   0.923   3.276
 5340SOL    HW216677   4.396   0.762   3.296
 5341SOL     OW16678   4.440   0.565   3.570
 5341SOL    HW116679   4.459   0.630   3.644
 5341SOL    HW216680   4.500   0.485   3.579
 5342SOL     OW16681   5.174   1.220   3.495
 5342SOL    HW116682   5.165   1.210   3.594
 5342SOL    HW216683   5.270   1.213   3.469
 5343SOL     OW16684   4.114   1.741   3.422
 5343SOL    HW116685   4.023   1.782   3.420
 5343SOL    HW216686   4.107   1.647   3.454
 5344SOL     OW16687   4.949   0.325   2.311
 5344SOL    HW116688   5.014   0.251   2.300
 5344SOL    HW216689   4.969   0.375   2.395
 5345SOL     OW16690   4.318   0.745   2.514
 5345SOL    HW116691   4.368   0.830   2.495
 5345SOL    HW216692   4.230   0.747   2.466
 5346SOL     OW16693   4.583   1.374   1.878
 5346SOL    HW116694   4.537   1.389   1.966
 5346SOL    HW216695   4.627   1.459   1.848
 5347SOL     OW16696   4.385   1.790   2.815
 5347SOL    HW116697   4.339   1.878   2.802
 5347SOL    HW216698   4.484   1.802   2.808
 5348SOL     OW16699   4.583   0.956   2.723
 5348SOL    HW116700   4.637   0.887   2.771
 5348SOL    HW216701   4.551   1.025   2.789
 5349SOL     OW16702   4.807   0.984   1.949
 5349SOL    HW116703   4.784   1.037   1.867
 5349SOL    HW216704   4.888   0.928   1.930
 5350SOL     OW16705   3.945   1.314   3.706
 5350SOL    HW116706   3.880   1.241   3.685
 5350SOL    HW216707   3.949   1.328   3.804
 5351SOL     OW16708   3.803   1.240   2.515
 5351SOL    HW116709   3.802   1.193   2.603
 5351SOL    HW216710   3.885   1.212   2.464
 5352SOL     OW16711   4.396   1.391   3.486
 5352SOL    HW116712   4.318   1.341   3.524
 5352SOL    HW216713   4.393   1.486   3.517
 5353SOL     OW16714   4.152   0.424   2.382
 5353SOL    HW116715   4.182   0.352   2.320
 5353SOL    HW216716   4.113   0.384   2.465
 5354SOL     OW16717   5.429   1.487   2.966
 5354SOL    HW116718   5.336   1.462   2.939
 5354SOL    HW216719   5.455   1.437   3.048
 5355SOL     OW16720   4.041   0.547   3.142
 5355SOL    HW116721   4.079   0.488   3.214
 5355SOL    HW216722   4.081   0.521   3.054
 5356SOL     OW16723   4.536   1.586   2.549
 5356SOL    HW116724   4.568   1.596   2.455
 5356SOL    HW216725   4.457   1.524   2.551
 5357SOL     OW16726   5.148   0.214   2.974
 5357SOL    HW116727   5.200   0.149   3.029
 5357SOL    HW216728   5.099   0.277   3.035
 5358SOL     OW16729   4.725   0.034   3.016
 5358SOL    HW116730   4.662  -0.038   2.985
 5358SOL    HW216731   4.818  -0.002   3.016
 5359SOL     OW16732   4.494   1.330   2.163
 5359SOL    HW116733   4.448   1.243   2.180
 5359SOL    HW216734   4.585   1.327   2.204
 5360SOL     OW16735   4.342   1.567   3.146
 5360SOL    HW116736   4.337   1.649   3.203
 5360SOL    HW216737   4.431   1.564   3.101
 5361SOL     OW16738   5.076   0.052   2.030
 5361SOL    HW116739   5.111   0.011   1.946
 5361SOL    HW216740   4.986   0.014   2.050
 5362SOL     OW16741   5.024   0.453   2.553
 5362SOL    HW116742   4.965   0.533   2.557
 5362SOL    HW216743   5.039   0.418   2.646
 5363SOL     OW16744   5.317   0.221   2.744
 5363SOL    HW116745   5.233   0.220   2.798
 5363SOL    HW216746   5.319   0.304   2.688
 5364SOL     OW16747   3.763   1.077   2.162
 5364SOL    HW116748   3.862   1.066   2.153
 5364SOL    HW216749   3.723   0.991   2.194
 5365SOL     OW16750   4.599   1.646   2.199
 5365SOL    HW116751   4.522   1.611   2.145
 5365SOL    HW216752   4.567   1.717   2.261
 5366SOL     OW16753   3.954   0.628   3.837
 5366SOL    HW116754   3.861   0.626   3.874
 5366SOL    HW216755   3.955   0.589   3.745
 5367SOL     OW16756   3.949   0.275   4.720
 5367SOL    HW116757   3.984   0.258   4.812
 5367SOL    HW216758   3.861   0.230   4.708
 5368SOL     OW16759   3.743   0.368   4.371
 5368SOL    HW116760   3.661   0.411   4.410
 5368SOL    HW216761   3.715   0.295   4.308
 5369SOL     OW16762   4.293   1.275   4.889
 5369SOL    HW116763   4.200   1.268   4.852
 5369SOL    HW216764   4.304   1.364   4.933
 5370SOL     OW16765   5.279   1.511   4.427
 5370SOL    HW116766   5.222   1.495   4.508
 5370SOL    HW216767   5.220   1.521   4.347
 5371SOL     OW16768   4.859   0.703   4.441
 5371SOL    HW116769   4.916   0.781   4.416
 5371SOL    HW216770   4.799   0.729   4.517
 5372SOL     OW16771   4.492   1.144   4.747
 5372SOL    HW116772   4.414   1.161   4.807
 5372SOL    HW216773   4.526   1.231   4.711
 5373SOL     OW16774   4.574   0.798   5.547
 5373SOL    HW116775   4.570   0.874   5.612
 5373SOL    HW216776   4.596   0.834   5.456
 5374SOL     OW16777   4.409   1.012   4.389
 5374SOL    HW116778   4.478   0.996   4.459
 5374SOL    HW216779   4.336   1.069   4.427
 5375SOL     OW16780   4.410   1.161   5.527
 5375SOL    HW116781   4.470   1.240   5.541
 5375SOL    HW216782   4.324   1.192   5.486
 5376SOL     OW16783   4.059   1.435   4.785
 5376SOL    HW116784   3.981   1.404   4.732
 5376SOL    HW216785   4.117   1.493   4.728
 5377SOL     OW16786   5.184   1.505   5.063
 5377SOL    HW116787   5.208   1.599   5.089
 5377SOL    HW216788   5.168   1.451   5.145
 5378SOL     OW16789   4.162   0.392   5.223
 5378SOL    HW116790   4.244   0.336   5.232
 5378SOL    HW216791   4.081   0.334   5.227
 5379SOL     OW16792   3.955   1.713   4.207
 5379SOL    HW116793   3.989   1.790   4.261
 5379SOL    HW216794   3.999   1.713   4.117
 5380SOL     OW16795   4.851   1.341   5.414
 5380SOL    HW116796   4.898   1.341   5.502
 5380SOL    HW216797   4.803   1.254   5.403
 5381SOL     OW16798   3.954   1.434   4.262
 5381SOL    HW116799   3.928   1.530   4.262
 5381SOL    HW216800   3.883   1.380   4.307
 5382SOL     OW16801   3.964   1.091   4.610
 5382SOL    HW116802   3.978   1.007   4.662
 5382SOL    HW216803   3.909   1.155   4.665
 5383SOL     OW16804   4.344   1.786   5.163
 5383SOL    HW116805   4.252   1.769   5.198
 5383SOL    HW216806   4.372   1.878   5.189
 5384SOL     OW16807   4.330   0.964   3.847
 5384SOL    HW116808   4.337   1.048   3.793
 5384SOL    HW216809   4.376   0.977   3.935
 5385SOL     OW16810   5.318   0.114   5.204
 5385SOL    HW116811   5.300   0.181   5.132
 5385SOL    HW216812   5.315   0.160   5.293
 5386SOL     OW16813   3.846   0.643   4.287
 5386SOL    HW116814   3.801   0.555   4.304
 5386SOL    HW216815   3.845   0.697   4.371
 5387SOL     OW16816   3.751   1.596   3.841
 5387SOL    HW116817   3.732   1.500   3.862
 5387SOL    HW216818   3.718   1.654   3.916
 5388SOL     OW16819   5.413   0.922   4.336
 5388SOL    HW116820   5.508   0.893   4.344
 5388SOL    HW216821   5.405   0.987   4.261
 5389SOL     OW16822   3.837   0.737   5.321
 5389SOL    HW116823   3.925   0.724   5.366
 5389SOL    HW216824   3.824   0.834   5.299
 5390SOL     OW16825   4.337   1.365   4.450
 5390SOL    HW116826   4.288   1.278   4.459
 5390SOL    HW216827   4.314   1.408   4.363
 5391SOL     OW16828   5.017   1.228   5.147
 5391SOL    HW116829   5.054   1.155   5.089
 5391SOL    HW216830   5.069   1.233   5.232
 5392SOL     OW16831   4.533   0.004   4.226
 5392SOL    HW116832   4.573   0.095   4.217
 5392SOL    HW216833   4.433   0.012   4.232
 5393SOL     OW16834   3.921   0.976   4.988
 5393SOL    HW116835   4.010   0.931   4.974
 5393SOL    HW216836   3.848   0.911   4.969
 5394SOL     OW16837   4.911   1.792   5.340
 5394SOL    HW116838   4.935   1.852   5.264
 5394SOL    HW216839   4.918   1.697   5.310
 5395SOL     OW16840   4.041   0.251   5.525
 5395SOL    HW116841   4.112   0.322   5.531
 5395SOL    HW216842   3.953   0.290   5.553
 5396SOL     OW16843   5.190   1.417   4.677
 5396SOL    HW116844   5.131   1.423   4.757
 5396SOL    HW216845   5.175   1.329   4.631
 5397SOL     OW16846   4.322   0.729   3.994
 5397SOL    HW116847   4.346   0.798   3.926
 5397SOL    HW216848   4.244   0.762   4.048
 5398SOL     OW16849   5.005   0.345   4.668
 5398SOL    HW116850   4.919   0.295   4.655
 5398SOL    HW216851   5.067   0.291   4.724
 5399SOL     OW16852   4.531   0.605   5.189
 5399SOL    HW116853   4.484   0.602   5.278
 5399SOL    HW216854   4.480   0.550   5.123
 5400SOL     OW16855   5.118   0.469   5.398
 5400SOL    HW116856   5.098   0.512   5.486
 5400SOL    HW216857   5.196   0.407   5.407
 5401SOL     OW16858   4.697   0.890   5.296
 5401SOL    HW116859   4.743   0.806   5.267
 5401SOL    HW216860   4.641   0.924   5.221
 5402SOL     OW16861   4.715   0.410   4.966
 5402SOL    HW116862   4.638   0.444   5.020
 5402SOL    HW216863   4.681   0.359   4.887
 5403SOL     OW16864   4.765   0.701   4.153
 5403SOL    HW116865   4.791   0.697   4.249
 5403SOL    HW216866   4.680   0.650   4.139
 5404SOL     OW16867   3.800   0.811   4.513
 5404SOL    HW116868   3.899   0.799   4.522
 5404SOL    HW216869   3.776   0.906   4.534
 5405SOL     OW16870   3.854   1.821   5.295
 5405SOL    HW116871   3.844   1.806   5.394
 5405SOL    HW216872   3.768   1.857   5.259
 5406SOL     OW16873   4.589   0.348   3.919
 5406SOL    HW116874   4.648   0.411   3.870
 5406SOL    HW216875   4.608   0.254   3.890
 5407SOL     OW16876   5.086   1.144   4.269
 5407SOL    HW116877   5.169   1.115   4.221
 5407SOL    HW216878   5.037   1.211   4.213
 5408SOL     OW16879   4.274   0.196   4.609
 5408SOL    HW116880   4.269   0.191   4.709
 5408SOL    HW216881   4.276   0.292   4.580
 5409SOL     OW16882   4.732   1.456   4.201
 5409SOL    HW116883   4.686   1.528   4.149
 5409SOL    HW216884   4.728   1.476   4.299
 5410SOL     OW16885   4.075   1.801   4.577
 5410SOL    HW116886   4.125   1.715   4.583
 5410SOL    HW216887   4.140   1.878   4.574
 5411SOL     OW16888   4.951   1.550   5.230
 5411SOL    HW116889   4.957   1.473   5.294
 5411SOL    HW216890   4.899   1.524   5.150
 5412SOL     OW16891   4.045   0.943   3.966
 5412SOL    HW116892   4.127   0.982   3.924
 5412SOL    HW216893   4.018   0.861   3.917
 5413SOL     OW16894   4.185   1.266   5.451
 5413SOL    HW116895   4.135   1.267   5.365
 5413SOL    HW216896   4.122   1.248   5.527
 5414SOL     OW16897   4.835   1.776   3.961
 5414SOL    HW116898   4.775   1.714   4.011
 5414SOL    HW216899   4.866   1.732   3.876
 5415SOL     OW16900   3.926   0.285   5.222
 5415SOL    HW116901   3.846   0.345   5.209
 5415SOL    HW216902   3.916   0.236   5.308
 5416SOL     OW16903   4.188   1.743   4.047
 5416SOL    HW116904   4.221   1.782   4.133
 5416SOL    HW216905   4.264   1.736   3.982
 5417SOL     OW16906   5.124   0.107   4.150
 5417SOL    HW116907   5.100   0.070   4.060
 5417SOL    HW216908   5.223   0.123   4.154
 5418SOL     OW16909   3.973   1.785   4.965
 5418SOL    HW116910   4.030   1.720   5.015
 5418SOL    HW216911   3.957   1.752   4.872
 5419SOL     OW16912   4.664   1.698   4.628
 5419SOL    HW116913   4.744   1.641   4.649
 5419SOL    HW216914   4.615   1.658   4.551
 5420SOL     OW16915   4.106   0.700   4.204
 5420SOL    HW116916   4.151   0.610   4.201
 5420SOL    HW216917   4.012   0.689   4.237
 5421SOL     OW16918   4.338   0.122   3.841
 5421SOL    HW116919   4.436   0.100   3.848
 5421SOL    HW216920   4.307   0.105   3.748
 5422SOL     OW16921   4.505   0.264   5.473
 5422SOL    HW116922   4.572   0.203   5.516
 5422SOL    HW216923   4.432   0.283   5.538
 5423SOL     OW16924   4.612   1.514   4.919
 5423SOL    HW116925   4.589   1.489   4.825
 5423SOL    HW216926   4.673   1.445   4.958
 5424SOL     OW16927   5.075   0.590   5.157
 5424SOL    HW116928   5.103   0.547   5.242
 5424SOL    HW216929   5.100   0.686   5.158
 5425SOL     OW16930   4.527   1.402   4.648
 5425SOL    HW116931   4.617   1.416   4.606
 5425SOL    HW216932   4.456   1.404   4.577
 5426SOL     OW16933   4.646   0.503   4.623
 5426SOL    HW116934   4.621   0.494   4.527
 5426SOL    HW216935   4.694   0.421   4.654
 5427SOL     OW16936   4.263   0.064   4.236
 5427SOL    HW116937   4.182   0.065   4.294
 5427SOL    HW216938   4.266   0.147   4.181
 5428SOL     OW16939   5.158   1.188   3.765
 5428SOL    HW116940   5.190   1.112   3.822
 5428SOL    HW216941   5.066   1.215   3.795
 5429SOL     OW16942   4.021   0.035   3.895
 5429SOL    HW116943   4.070   0.119   3.874
 5429SOL    HW216944   4.083  -0.030   3.940
 5430SOL     OW16945   4.659   0.236   4.204
 5430SOL    HW116946   4.611   0.277   4.126
 5430SOL    HW216947   4.758   0.234   4.185
 5431SOL     OW16948   4.800   0.683   5.188
 5431SOL    HW116949   4.720   0.622   5.191
 5431SOL    HW216950   4.881   0.630   5.164
 5432SOL     OW16951   4.951   1.570   4.517
 5432SOL    HW116952   4.972   1.644   4.452
 5432SOL    HW216953   5.019   1.570   4.590
 5433SOL     OW16954   4.183   1.152   4.465
 5433SOL    HW116955   4.112   1.125   4.530
 5433SOL    HW216956   4.157   1.124   4.372
 5434SOL     OW16957   4.995   1.797   4.315
 5434SOL    HW116958   5.039   1.861   4.251
 5434SOL    HW216959   4.945   1.849   4.385
 5435SOL     OW16960   4.756   0.549   3.740
 5435SOL    HW116961   4.715   0.631   3.701
 5435SOL    HW216962   4.820   0.575   3.813
 5436SOL     OW16963   3.802   0.556   5.110
 5436SOL    HW116964   3.894   0.555   5.069
 5436SOL    HW216965   3.796   0.630   5.177
 5437SOL     OW16966   4.285   0.222   4.871
 5437SOL    HW116967   4.323   0.138   4.908
 5437SOL    HW216968   4.197   0.241   4.915
 5438SOL     OW16969   4.590   0.454   4.366
 5438SOL    HW116970   4.558   0.526   4.304
 5438SOL    HW216971   4.614   0.373   4.313
 5439SOL     OW16972   4.741   0.039   4.477
 5439SOL    HW116973   4.669   0.044   4.408
 5439SOL    HW216974   4.717  -0.030   4.546
 5440SOL     OW16975   5.153   1.173   4.591
 5440SOL    HW116976   5.098   1.089   4.584
 5440SOL    HW216977   5.179   1.202   4.499
 5441SOL     OW16978   4.212   1.385   3.898
 5441SOL    HW116979   4.125   1.370   3.945
 5441SOL    HW216980   4.195   1.411   3.803
 5442SOL     OW16981   5.114   0.575   3.802
 5442SOL    HW116982   5.060   0.554   3.883
 5442SOL    HW216983   5.205   0.534   3.811
 5443SOL     OW16984   4.251   0.256   4.052
 5443SOL    HW116985   4.278   0.197   3.977
 5443SOL    HW216986   4.251   0.351   4.021
 5444SOL     OW16987   4.788   1.347   5.064
 5444SOL    HW116988   4.708   1.324   5.119
 5444SOL    HW216989   4.871   1.321   5.113
 5445SOL     OW16990   5.316   1.629   5.349
 5445SOL    HW116991   5.343   1.663   5.259
 5445SOL    HW216992   5.395   1.591   5.395
 5446SOL     OW16993   4.835   1.195   4.824
 5446SOL    HW116994   4.795   1.239   4.905
 5446SOL    HW216995   4.794   1.232   4.741
 5447SOL     OW16996   4.639   0.089   5.126
 5447SOL    HW116997   4.664   0.069   5.031
 5447SOL    HW216998   4.711   0.145   5.168
 5448SOL     OW16999   4.704   1.116   5.443
 5448SOL    HW117000   4.605   1.122   5.453
 5448SOL    HW217001   4.727   1.036   5.387
 5449SOL     OW17002   4.429   1.050   4.092
 5449SOL    HW117003   4.415   1.057   4.191
 5449SOL    HW217004   4.513   0.999   4.074
 5450SOL     OW17005   4.134   0.813   4.975
 5450SOL    HW117006   4.220   0.825   5.025
 5450SOL    HW217007   4.092   0.726   5.002
 5451SOL     OW17008   4.998   0.386   4.986
 5451SOL    HW117009   5.019   0.460   5.050
 5451SOL    HW217010   4.909   0.403   4.943
 5452SOL     OW17011   3.788   1.564   5.055
 5452SOL    HW117012   3.742   1.646   5.021
 5452SOL    HW217013   3.886   1.583   5.064
 5453SOL     OW17014   4.091   1.100   4.225
 5453SOL    HW117015   4.084   1.183   4.169
 5453SOL    HW217016   4.095   1.020   4.165
 5454SOL     OW17017   4.290   0.537   4.589
 5454SOL    HW117018   4.302   0.603   4.515
 5454SOL    HW217019   4.336   0.571   4.672
 5455SOL     OW17020   4.976   1.348   4.112
 5455SOL    HW117021   5.026   1.425   4.152
 5455SOL    HW217022   4.881   1.350   4.144
 5456SOL     OW17023   4.996   1.445   4.866
 5456SOL    HW117024   5.043   1.458   4.953
 5456SOL    HW217025   4.930   1.371   4.875
 5457SOL     OW17026   4.078   1.510   5.053
 5457SOL    HW117027   4.057   1.466   4.966
 5457SOL    HW217028   4.175   1.536   5.056
 5458SOL     OW17029   4.126   0.751   5.322
 5458SOL    HW117030   4.194   0.806   5.275
 5458SOL    HW217031   4.166   0.663   5.349
 5459SOL     OW17032   4.737   0.105   5.494
 5459SOL    HW117033   4.743   0.190   5.442
 5459SOL    HW217034   4.769   0.029   5.437
 5460SOL     OW17035   4.228   0.050   5.464
 5460SOL    HW117036   4.186  -0.007   5.394
 5460SOL    HW217037   4.162   0.119   5.496
 5461SOL     OW17038   4.297   0.870   4.753
 5461SOL    HW117039   4.341   0.959   4.744
 5461SOL    HW217040   4.234   0.870   4.830
 5462SOL     OW17041   5.084   0.862   4.769
 5462SOL    HW117042   5.009   0.862   4.703
 5462SOL    HW217043   5.121   0.770   4.778
 5463SOL     OW17044   4.933   0.525   3.999
 5463SOL    HW117045   4.946   0.441   4.053
 5463SOL    HW217046   4.904   0.599   4.059
 5464SOL     OW17047   4.031   0.213   4.955
 5464SOL    HW117048   4.008   0.250   5.045
 5464SOL    HW217049   4.001   0.118   4.949
 5465SOL     OW17050   3.761   1.310   5.006
 5465SOL    HW117051   3.814   1.261   5.074
 5465SOL    HW217052   3.783   1.408   5.011
 5466SOL     OW17053   4.456   0.634   4.788
 5466SOL    HW117054   4.515   0.608   4.712
 5466SOL    HW217055   4.428   0.730   4.777
 5467SOL     OW17056   4.031   0.063   4.342
 5467SOL    HW117057   4.020   0.157   4.375
 5467SOL    HW217058   4.026   0.000   4.419
 5468SOL     OW17059   5.346   0.367   4.098
 5468SOL    HW117060   5.348   0.291   4.162
 5468SOL    HW217061   5.298   0.444   4.138
 5469SOL     OW17062   4.747   0.766   4.690
 5469SOL    HW117063   4.762   0.787   4.786
 5469SOL    HW217064   4.717   0.671   4.681
 5470SOL     OW17065   4.704   1.573   5.424
 5470SOL    HW117066   4.684   1.617   5.336
 5470SOL    HW217067   4.743   1.482   5.408
 5471SOL     OW17068   4.074   0.898   5.528
 5471SOL    HW117069   4.150   0.942   5.576
 5471SOL    HW217070   4.109   0.851   5.446
 5472SOL     OW17071   5.027   0.838   3.766
 5472SOL    HW117072   5.061   0.745   3.781
 5472SOL    HW217073   5.045   0.865   3.671
 5473SOL     OW17074   4.792   1.333   4.573
 5473SOL    HW117075   4.799   1.249   4.518
 5473SOL    HW217076   4.854   1.402   4.537
 5474SOL     OW17077   4.043   0.810   4.673
 5474SOL    HW117078   4.136   0.846   4.678
 5474SOL    HW217079   4.037   0.725   4.725
 5475SOL     OW17080   4.063   0.509   4.730
 5475SOL    HW117081   4.011   0.426   4.713
 5475SOL    HW217082   4.140   0.514   4.666
 5476SOL     OW17083   4.862   0.380   5.402
 5476SOL    HW117084   4.817   0.443   5.466
 5476SOL    HW217085   4.955   0.411   5.385
 5477SOL     OW17086   4.884   0.207   5.201
 5477SOL    HW117087   4.884   0.271   5.278
 5477SOL    HW217088   4.912   0.255   5.118
 5478SOL     OW17089   3.732   1.326   3.924
 5478SOL    HW117090   3.639   1.347   3.893
 5478SOL    HW217091   3.742   1.227   3.937
 5479SOL     OW17092   3.812   1.801   4.651
 5479SOL    HW117093   3.770   1.715   4.624
 5479SOL    HW217094   3.906   1.804   4.617
 5480SOL     OW17095   4.228   1.568   4.634
 5480SOL    HW117096   4.294   1.642   4.643
 5480SOL    HW217097   4.272   1.489   4.592
 5481SOL     OW17098   4.726   0.796   4.962
 5481SOL    HW117099   4.767   0.764   5.048
 5481SOL    HW217100   4.630   0.769   4.959
 5482SOL     OW17101   3.764   0.544   4.838
 5482SOL    HW117102   3.849   0.511   4.797
 5482SOL    HW217103   3.777   0.559   4.936
 5483SOL     OW17104   3.913   0.520   5.446
 5483SOL    HW117105   3.972   0.480   5.376
 5483SOL    HW217106   3.855   0.591   5.405
 5484SOL     OW17107   5.093   0.950   5.384
 5484SOL    HW117108   5.132   1.039   5.404
 5484SOL    HW217109   5.103   0.930   5.287
 5485SOL     OW17110   4.539   0.572   4.049
 5485SOL    HW117111   4.546   0.483   4.003
 5485SOL    HW217112   4.445   0.606   4.041
 5486SOL     OW17113   3.976   1.564   5.468
 5486SOL    HW117114   3.946   1.621   5.544
 5486SOL    HW217115   3.969   1.467   5.494
 5487SOL     OW17116   4.395   0.464   4.993
 5487SOL    HW117117   4.361   0.375   4.963
 5487SOL    HW217118   4.421   0.518   4.913
 5488SOL     OW17119   4.654   1.678   5.189
 5488SOL    HW117120   4.630   1.660   5.094
 5488SOL    HW217121   4.684   1.772   5.199
 5489SOL     OW17122   4.197   0.500   3.915
 5489SOL    HW117123   4.258   0.580   3.919
 5489SOL    HW217124   4.102   0.531   3.922
 5490SOL     OW17125   3.883   1.137   5.190
 5490SOL    HW117126   3.905   1.076   5.266
 5490SOL    HW217127   3.893   1.088   5.104
 5491SOL     OW17128   5.071   1.059   4.958
 5491SOL    HW117129   5.095   0.996   4.884
 5491SOL    HW217130   4.981   1.099   4.940
 5492SOL     OW17131   5.026   0.855   4.033
 5492SOL    HW117132   4.940   0.824   4.075
 5492SOL    HW217133   5.022   0.841   3.934
 5493SOL     OW17134   4.976   1.731   4.852
 5493SOL    HW117135   5.060   1.736   4.798
 5493SOL    HW217136   4.953   1.635   4.870
 5494SOL     OW17137   3.807   1.258   4.746
 5494SOL    HW117138   3.802   1.257   4.846
 5494SOL    HW217139   3.724   1.217   4.708
 5495SOL     OW17140   4.412   1.662   5.440
 5495SOL    HW117141   4.356   1.743   5.449
 5495SOL    HW217142   4.464   1.666   5.354
 5496SOL     OW17143   5.112   1.573   4.201
 5496SOL    HW117144   5.179   1.585   4.127
 5496SOL    HW217145   5.072   1.662   4.224
 5497SOL     OW17146   3.854   1.794   5.575
 5497SOL    HW117147   3.813   1.720   5.628
 5497SOL    HW217148   3.918   1.845   5.633
 5498SOL     OW17149   5.004   0.927   4.396
 5498SOL    HW117150   5.064   0.846   4.398
 5498SOL    HW217151   5.044   0.996   4.336
 5499SOL     OW17152   4.554   1.273   5.146
 5499SOL    HW117153   4.549   1.306   5.241
 5499SOL    HW217154   4.468   1.292   5.100
 5500SOL     OW17155   4.396   1.616   3.878
 5500SOL    HW117156   4.405   1.626   3.779
 5500SOL    HW217157   4.356   1.527   3.899
 5501SOL     OW17158   3.987   0.326   4.444
 5501SOL    HW117159   3.908   0.377   4.410
 5501SOL    HW217160   3.978   0.311   4.542
 5502SOL     OW17161   4.918   1.612   3.755
 5502SOL    HW117162   4.924   1.519   3.792
 5502SOL    HW217163   4.859   1.612   3.675
 5503SOL     OW17164   4.546   1.002   5.096
 5503SOL    HW117165   4.586   1.001   5.004
 5503SOL    HW217166   4.556   1.094   5.136
 5504SOL     OW17167   4.640   0.910   4.015
 5504SOL    HW117168   4.703   0.948   3.947
 5504SOL    HW217169   4.680   0.827   4.054
 5505SOL     OW17170   4.096   1.288   5.214
 5505SOL    HW117171   4.083   1.381   5.180
 5505SOL    HW217172   4.012   1.236   5.201
 5506SOL     OW17173   4.763   1.098   4.420
 5506SOL    HW117174   4.693   1.051   4.474
 5506SOL    HW217175   4.822   1.030   4.377
 5507SOL     OW17176   4.738   0.236   4.695
 5507SOL    HW117177   4.730   0.200   4.602
 5507SOL    HW217178   4.736   0.160   4.760
 5508SOL     OW17179   4.314   1.487   4.215
 5508SOL    HW117180   4.356   1.429   4.145
 5508SOL    HW217181   4.270   1.566   4.171
 5509SOL     OW17182   3.979   1.348   4.014
 5509SOL    HW117183   3.883   1.349   3.987
 5509SOL    HW217184   3.991   1.401   4.098
 5510SOL     OW17185   3.829   1.013   5.450
 5510SOL    HW117186   3.752   0.980   5.504
 5510SOL    HW217187   3.914   0.983   5.492
 5511SOL     OW17188   4.396   0.203   5.213
 5511SOL    HW117189   4.486   0.187   5.173
 5511SOL    HW217190   4.404   0.208   5.312
 5512SOL     OW17191   3.799   0.345   3.757
 5512SOL    HW117192   3.707   0.317   3.728
 5512SOL    HW217193   3.830   0.422   3.701
 5513SOL     OW17194   5.164   0.856   5.122
 5513SOL    HW117195   5.107   0.908   5.059
 5513SOL    HW217196   5.260   0.868   5.098
 5514SOL     OW17197   3.796   0.166   4.042
 5514SOL    HW117198   3.779   0.249   3.988
 5514SOL    HW217199   3.886   0.129   4.020
 5515SOL     OW17200   4.907   1.335   3.843
 5515SOL    HW117201   4.808   1.324   3.845
 5515SOL    HW217202   4.941   1.350   3.936
 5516SOL     OW17203   4.337   0.842   5.155
 5516SOL    HW117204   4.393   0.923   5.138
 5516SOL    HW217205   4.396   0.762   5.158
 5517SOL     OW17206   4.440   0.565   5.432
 5517SOL    HW117207   4.459   0.630   5.506
 5517SOL    HW217208   4.500   0.485   5.441
 5518SOL     OW17209   5.174   1.220   5.357
 5518SOL    HW117210   5.165   1.210   5.456
 5518SOL    HW217211   5.270   1.213   5.331
 5519SOL     OW17212   4.114   1.741   5.284
 5519SOL    HW117213   4.023   1.782   5.282
 5519SOL    HW217214   4.107   1.647   5.316
 5520SOL     OW17215   4.949   0.325   4.173
 5520SOL    HW117216   5.014   0.251   4.162
 5520SOL    HW217217   4.969   0.375   4.257
 5521SOL     OW17218   4.318   0.745   4.376
 5521SOL    HW117219   4.368   0.830   4.357
 5521SOL    HW217220   4.230   0.747   4.328
 5522SOL     OW17221   4.583   1.374   3.740
 5522SOL    HW117222   4.537   1.389   3.828
 5522SOL    HW217223   4.627   1.459   3.710
 5523SOL     OW17224   4.385   1.790   4.677
 5523SOL    HW117225   4.339   1.878   4.664
 5523SOL    HW217226   4.484   1.802   4.670
 5524SOL     OW17227   4.583   0.956   4.585
 5524SOL    HW117228   4.637   0.887   4.633
 5524SOL    HW217229   4.551   1.025   4.651
 5525SOL     OW17230   4.807   0.984   3.811
 5525SOL    HW117231   4.784   1.037   3.729
 5525SOL    HW217232   4.888   0.928   3.792
 5526SOL     OW17233   3.945   1.314   5.568
 5526SOL    HW117234   3.880   1.241   5.547
 5526SOL    HW217235   3.949   1.328   5.666
 5527SOL     OW17236   3.803   1.240   4.377
 5527SOL    HW117237   3.802   1.193   4.465
 5527SOL    HW217238   3.885   1.212   4.326
 5528SOL     OW17239   4.396   1.391   5.348
 5528SOL    HW117240   4.318   1.341   5.386
 5528SOL    HW217241   4.393   1.486   5.379
 5529SOL     OW17242   4.152   0.424   4.244
 5529SOL    HW117243   4.182   0.352   4.182
 5529SOL    HW217244   4.113   0.384   4.327
 5530SOL     OW17245   5.429   1.487   4.828
 5530SOL    HW117246   5.336   1.462   4.801
 5530SOL    HW217247   5.455   1.437   4.910
 5531SOL     OW17248   4.041   0.547   5.004
 5531SOL    HW117249   4.079   0.488   5.076
 5531SOL    HW217250   4.081   0.521   4.916
 5532SOL     OW17251   4.536   1.586   4.411
 5532SOL    HW117252   4.568   1.596   4.317
 5532SOL    HW217253   4.457   1.524   4.413
 5533SOL     OW17254   5.148   0.214   4.836
 5533SOL    HW117255   5.200   0.149   4.891
 5533SOL    HW217256   5.099   0.277   4.897
 5534SOL     OW17257   4.725   0.034   4.878
 5534SOL    HW117258   4.662  -0.038   4.847
 5534SOL    HW217259   4.818  -0.002   4.878
 5535SOL     OW17260   4.494   1.330   4.025
 5535SOL    HW117261   4.448   1.243   4.042
 5535SOL    HW217262   4.585   1.327   4.066
 5536SOL     OW17263   4.342   1.567   5.008
 5536SOL    HW117264   4.337   1.649   5.065
 5536SOL    HW217265   4.431   1.564   4.963
 5537SOL     OW17266   5.076   0.052   3.892
 5537SOL    HW117267   5.111   0.011   3.808
 5537SOL    HW217268   4.986   0.014   3.912
 5538SOL     OW17269   5.024   0.453   4.415
 5538SOL    HW117270   4.965   0.533   4.419
 5538SOL    HW217271   5.039   0.418   4.508
 5539SOL     OW17272   5.317   0.221   4.606
 5539SOL    HW117273   5.233   0.220   4.660
 5539SOL    HW217274   5.319   0.304   4.550
 5540SOL     OW17275   3.763   1.077   4.024
 5540SOL    HW117276   3.862   1.066   4.015
 5540SOL    HW217277   3.723   0.991   4.056
 5541SOL     OW17278   4.599   1.646   4.061
 5541SOL    HW117279   4.522   1.611   4.007
 5541SOL    HW217280   4.567   1.717   4.123
 5542SOL     OW17281   3.954   0.628   5.699
 5542SOL    HW117282   3.861   0.626   5.736
 5542SOL    HW217283   3.955   0.589   5.607
 5543SOL     OW17284   3.949   0.275   6.582
 5543SOL    HW117285   3.984   0.258   6.674
 5543SOL    HW217286   3.861   0.230   6.570
 5544SOL     OW17287   3.743   0.368   6.233
 5544SOL    HW117288   3.661   0.411   6.272
 5544SOL    HW217289   3.715   0.295   6.170
 5545SOL     OW17290   4.293   1.275   6.751
 5545SOL    HW117291   4.200   1.268   6.714
 5545SOL    HW217292   4.304   1.364   6.795
 5546SOL     OW17293   5.279   1.511   6.289
 5546SOL    HW117294   5.222   1.495   6.370
 5546SOL    HW217295   5.220   1.521   6.209
 5547SOL     OW17296   4.859   0.703   6.303
 5547SOL    HW117297   4.916   0.781   6.278
 5547SOL    HW217298   4.799   0.729   6.379
 5548SOL     OW17299   4.492   1.144   6.609
 5548SOL    HW117300   4.414   1.161   6.669
 5548SOL    HW217301   4.526   1.231   6.573
 5549SOL     OW17302   4.574   0.798   7.409
 5549SOL    HW117303   4.570   0.874   7.474
 5549SOL    HW217304   4.596   0.834   7.318
 5550SOL     OW17305   4.409   1.012   6.251
 5550SOL    HW117306   4.478   0.996   6.321
 5550SOL    HW217307   4.336   1.069   6.289
 5551SOL     OW17308   4.410   1.161   7.389
 5551SOL    HW117309   4.470   1.240   7.403
 5551SOL    HW217310   4.324   1.192   7.348
 5552SOL     OW17311   4.059   1.435   6.647
 5552SOL    HW117312   3.981   1.404   6.594
 5552SOL    HW217313   4.117   1.493   6.590
 5553SOL     OW17314   5.184   1.505   6.925
 5553SOL    HW117315   5.208   1.599   6.951
 5553SOL    HW217316   5.168   1.451   7.007
 5554SOL     OW17317   4.162   0.392   7.085
 5554SOL    HW117318   4.244   0.336   7.094
 5554SOL    HW217319   4.081   0.334   7.089
 5555SOL     OW17320   3.955   1.713   6.069
 5555SOL    HW117321   3.989   1.790   6.123
 5555SOL    HW217322   3.999   1.713   5.979
 5556SOL     OW17323   4.851   1.341   7.276
 5556SOL    HW117324   4.898   1.341   7.364
 5556SOL    HW217325   4.803   1.254   7.265
 5557SOL     OW17326   3.954   1.434   6.124
 5557SOL    HW117327   3.928   1.530   6.124
 5557SOL    HW217328   3.883   1.380   6.169
 5558SOL     OW17329   3.964   1.091   6.472
 5558SOL    HW117330   3.978   1.007   6.524
 5558SOL    HW217331   3.909   1.155   6.527
 5559SOL     OW17332   4.344   1.786   7.025
 5559SOL    HW117333   4.252   1.769   7.060
 5559SOL    HW217334   4.372   1.878   7.051
 5560SOL     OW17335   4.330   0.964   5.709
 5560SOL    HW117336   4.337   1.048   5.655
 5560SOL    HW217337   4.376   0.977   5.797
 5561SOL     OW17338   5.318   0.114   7.066
 5561SOL    HW117339   5.300   0.181   6.994
 5561SOL    HW217340   5.315   0.160   7.155
 5562SOL     OW17341   3.846   0.643   6.149
 5562SOL    HW117342   3.801   0.555   6.166
 5562SOL    HW217343   3.845   0.697   6.233
 5563SOL     OW17344   3.751   1.596   5.703
 5563SOL    HW117345   3.732   1.500   5.724
 5563SOL    HW217346   3.718   1.654   5.778
 5564SOL     OW17347   5.413   0.922   6.198
 5564SOL    HW117348   5.508   0.893   6.206
 5564SOL    HW217349   5.405   0.987   6.123
 5565SOL     OW17350   3.837   0.737   7.183
 5565SOL    HW117351   3.925   0.724   7.228
 5565SOL    HW217352   3.824   0.834   7.161
 5566SOL     OW17353   4.337   1.365   6.312
 5566SOL    HW117354   4.288   1.278   6.321
 5566SOL    HW217355   4.314   1.408   6.225
 5567SOL     OW17356   5.017   1.228   7.009
 5567SOL    HW117357   5.054   1.155   6.951
 5567SOL    HW217358   5.069   1.233   7.094
 5568SOL     OW17359   4.533   0.004   6.088
 5568SOL    HW117360   4.573   0.095   6.079
 5568SOL    HW217361   4.433   0.012   6.094
 5569SOL     OW17362   3.921   0.976   6.850
 5569SOL    HW117363   4.010   0.931   6.836
 5569SOL    HW217364   3.848   0.911   6.831
 5570SOL     OW17365   4.911   1.792   7.202
 5570SOL    HW117366   4.935   1.852   7.126
 5570SOL    HW217367   4.918   1.697   7.172
 5571SOL     OW17368   4.041   0.251   7.387
 5571SOL    HW117369   4.112   0.322   7.393
 5571SOL    HW217370   3.953   0.290   7.415
 5572SOL     OW17371   5.190   1.417   6.539
 5572SOL    HW117372   5.131   1.423   6.619
 5572SOL    HW217373   5.175   1.329   6.493
 5573SOL     OW17374   4.322   0.729   5.856
 5573SOL    HW117375   4.346   0.798   5.788
 5573SOL    HW217376   4.244   0.762   5.910
 5574SOL     OW17377   5.005   0.345   6.530
 5574SOL    HW117378   4.919   0.295   6.517
 5574SOL    HW217379   5.067   0.291   6.586
 5575SOL     OW17380   4.531   0.605   7.051
 5575SOL    HW117381   4.484   0.602   7.140
 5575SOL    HW217382   4.480   0.550   6.985
 5576SOL     OW17383   5.118   0.469   7.260
 5576SOL    HW117384   5.098   0.512   7.348
 5576SOL    HW217385   5.196   0.407   7.269
 5577SOL     OW17386   4.697   0.890   7.158
 5577SOL    HW117387   4.743   0.806   7.129
 5577SOL    HW217388   4.641   0.924   7.083
 5578SOL     OW17389   4.715   0.410   6.828
 5578SOL    HW117390   4.638   0.444   6.882
 5578SOL    HW217391   4.681   0.359   6.749
 5579SOL     OW17392   4.765   0.701   6.015
 5579SOL    HW117393   4.791   0.697   6.111
 5579SOL    HW217394   4.680   0.650   6.001
 5580SOL     OW17395   3.800   0.811   6.375
 5580SOL    HW117396   3.899   0.799   6.384
 5580SOL    HW217397   3.776   0.906   6.396
 5581SOL     OW17398   3.854   1.821   7.157
 5581SOL    HW117399   3.844   1.806   7.256
 5581SOL    HW217400   3.768   1.857   7.121
 5582SOL     OW17401   4.589   0.348   5.781
 5582SOL    HW117402   4.648   0.411   5.732
 5582SOL    HW217403   4.608   0.254   5.752
 5583SOL     OW17404   5.086   1.144   6.131
 5583SOL    HW117405   5.169   1.115   6.083
 5583SOL    HW217406   5.037   1.211   6.075
 5584SOL     OW17407   4.274   0.196   6.471
 5584SOL    HW117408   4.269   0.191   6.571
 5584SOL    HW217409   4.276   0.292   6.442
 5585SOL     OW17410   4.732   1.456   6.063
 5585SOL    HW117411   4.686   1.528   6.011
 5585SOL    HW217412   4.728   1.476   6.161
 5586SOL     OW17413   4.075   1.801   6.439
 5586SOL    HW117414   4.125   1.715   6.445
 5586SOL    HW217415   4.140   1.878   6.436
 5587SOL     OW17416   4.951   1.550   7.092
 5587SOL    HW117417   4.957   1.473   7.156
 5587SOL    HW217418   4.899   1.524   7.012
 5588SOL     OW17419   4.045   0.943   5.828
 5588SOL    HW117420   4.127   0.982   5.786
 5588SOL    HW217421   4.018   0.861   5.779
 5589SOL     OW17422   4.185   1.266   7.313
 5589SOL    HW117423   4.135   1.267   7.227
 5589SOL    HW217424   4.122   1.248   7.389
 5590SOL     OW17425   4.835   1.776   5.823
 5590SOL    HW117426   4.775   1.714   5.873
 5590SOL    HW217427   4.866   1.732   5.738
 5591SOL     OW17428   3.926   0.285   7.084
 5591SOL    HW117429   3.846   0.345   7.071
 5591SOL    HW217430   3.916   0.236   7.170
 5592SOL     OW17431   4.188   1.743   5.909
 5592SOL    HW117432   4.221   1.782   5.995
 5592SOL    HW217433   4.264   1.736   5.844
 5593SOL     OW17434   5.124   0.107   6.012
 5593SOL    HW117435   5.100   0.070   5.922
 5593SOL    HW217436   5.223   0.123   6.016
 5594SOL     OW17437   3.973   1.785   6.827
 5594SOL    HW117438   4.030   1.720   6.877
 5594SOL    HW217439   3.957   1.752   6.734
 5595SOL     OW17440   4.664   1.698   6.490
 5595SOL    HW117441   4.744   1.641   6.511
 5595SOL    HW217442   4.615   1.658   6.413
 5596SOL     OW17443   4.106   0.700   6.066
 5596SOL    HW117444   4.151   0.610   6.063
 5596SOL    HW217445   4.012   0.689   6.099
 5597SOL     OW17446   4.338   0.122   5.703
 5597SOL    HW117447   4.436   0.100   5.710
 5597SOL    HW217448   4.307   0.105   5.610
 5598SOL     OW17449   4.505   0.264   7.335
 5598SOL    HW117450   4.572   0.203   7.378
 5598SOL    HW217451   4.432   0.283   7.400
 5599SOL     OW17452   4.612   1.514   6.781
 5599SOL    HW117453   4.589   1.489   6.687
 5599SOL    HW217454   4.673   1.445   6.820
 5600SOL     OW17455   5.075   0.590   7.019
 5600SOL    HW117456   5.103   0.547   7.104
 5600SOL    HW217457   5.100   0.686   7.020
 5601SOL     OW17458   4.527   1.402   6.510
 5601SOL    HW117459   4.617   1.416   6.468
 5601SOL    HW217460   4.456   1.404   6.439
 5602SOL     OW17461   4.646   0.503   6.485
 5602SOL    HW117462   4.621   0.494   6.389
 5602SOL    HW217463   4.694   0.421   6.516
 5603SOL     OW17464   4.263   0.064   6.098
 5603SOL    HW117465   4.182   0.065   6.156
 5603SOL    HW217466   4.266   0.147   6.043
 5604SOL     OW17467   5.158   1.188   5.627
 5604SOL    HW117468   5.190   1.112   5.684
 5604SOL    HW217469   5.066   1.215   5.657
 5605SOL     OW17470   4.021   0.035   5.757
 5605SOL    HW117471   4.070   0.119   5.736
 5605SOL    HW217472   4.083  -0.030   5.802
 5606SOL     OW17473   4.659   0.236   6.066
 5606SOL    HW117474   4.611   0.277   5.988
 5606SOL    HW217475   4.758   0.234   6.047
 5607SOL     OW17476   4.800   0.683   7.050
 5607SOL    HW117477   4.720   0.622   7.053
 5607SOL    HW217478   4.881   0.630   7.026
 5608SOL     OW17479   4.951   1.570   6.379
 5608SOL    HW117480   4.972   1.644   6.314
 5608SOL    HW217481   5.019   1.570   6.452
 5609SOL     OW17482   4.183   1.152   6.327
 5609SOL    HW117483   4.112   1.125   6.392
 5609SOL    HW217484   4.157   1.124   6.234
 5610SOL     OW17485   4.995   1.797   6.177
 5610SOL    HW117486   5.039   1.861   6.113
 5610SOL    HW217487   4.945   1.849   6.247
 5611SOL     OW17488   4.756   0.549   5.602
 5611SOL    HW117489   4.715   0.631   5.563
 5611SOL    HW217490   4.820   0.575   5.675
 5612SOL     OW17491   3.802   0.556   6.972
 5612SOL    HW117492   3.894   0.555   6.931
 5612SOL    HW217493   3.796   0.630   7.039
 5613SOL     OW17494   4.285   0.222   6.733
 5613SOL    HW117495   4.323   0.138   6.770
 5613SOL    HW217496   4.197   0.241   6.777
 5614SOL     OW17497   4.590   0.454   6.228
 5614SOL    HW117498   4.558   0.526   6.166
 5614SOL    HW217499   4.614   0.373   6.175
 5615SOL     OW17500   4.741   0.039   6.339
 5615SOL    HW117501   4.669   0.044   6.270
 5615SOL    HW217502   4.717  -0.030   6.408
 5616SOL     OW17503   5.153   1.173   6.453
 5616SOL    HW117504   5.098   1.089   6.446
 5616SOL    HW217505   5.179   1.202   6.361
 5617SOL     OW17506   4.212   1.385   5.760
 5617SOL    HW117507   4.125   1.370   5.807
 5617SOL    HW217508   4.195   1.411   5.665
 5618SOL     OW17509   5.114   0.575   5.664
 5618SOL    HW117510   5.060   0.554   5.745
 5618SOL    HW217511   5.205   0.534   5.673
 5619SOL     OW17512   4.251   0.256   5.914
 5619SOL    HW117513   4.278   0.197   5.839
 5619SOL    HW217514   4.251   0.351   5.883
 5620SOL     OW17515   4.788   1.347   6.926
 5620SOL    HW117516   4.708   1.324   6.981
 5620SOL    HW217517   4.871   1.321   6.975
 5621SOL     OW17518   5.316   1.629   7.211
 5621SOL    HW117519   5.343   1.663   7.121
 5621SOL    HW217520   5.395   1.591   7.257
 5622SOL     OW17521   4.835   1.195   6.686
 5622SOL    HW117522   4.795   1.239   6.767
 5622SOL    HW217523   4.794   1.232   6.603
 5623SOL     OW17524   4.639   0.089   6.988
 5623SOL    HW117525   4.664   0.069   6.893
 5623SOL    HW217526   4.711   0.145   7.030
 5624SOL     OW17527   4.704   1.116   7.305
 5624SOL    HW117528   4.605   1.122   7.315
 5624SOL    HW217529   4.727   1.036   7.249
 5625SOL     OW17530   4.429   1.050   5.954
 5625SOL    HW117531   4.415   1.057   6.053
 5625SOL    HW217532   4.513   0.999   5.936
 5626SOL     OW17533   4.134   0.813   6.837
 5626SOL    HW117534   4.220   0.825   6.887
 5626SOL    HW217535   4.092   0.726   6.864
 5627SOL     OW17536   4.998   0.386   6.848
 5627SOL    HW117537   5.019   0.460   6.912
 5627SOL    HW217538   4.909   0.403   6.805
 5628SOL     OW17539   3.788   1.564   6.917
 5628SOL    HW117540   3.742   1.646   6.883
 5628SOL    HW217541   3.886   1.583   6.926
 5629SOL     OW17542   4.091   1.100   6.087
 5629SOL    HW117543   4.084   1.183   6.031
 5629SOL    HW217544   4.095   1.020   6.027
 5630SOL     OW17545   4.290   0.537   6.451
 5630SOL    HW117546   4.302   0.603   6.377
 5630SOL    HW217547   4.336   0.571   6.534
 5631SOL     OW17548   4.976   1.348   5.974
 5631SOL    HW117549   5.026   1.425   6.014
 5631SOL    HW217550   4.881   1.350   6.006
 5632SOL     OW17551   4.996   1.445   6.728
 5632SOL    HW117552   5.043   1.458   6.815
 5632SOL    HW217553   4.930   1.371   6.737
 5633SOL     OW17554   4.078   1.510   6.915
 5633SOL    HW117555   4.057   1.466   6.828
 5633SOL    HW217556   4.175   1.536   6.918
 5634SOL     OW17557   4.126   0.751   7.184
 5634SOL    HW117558   4.194   0.806   7.137
 5634SOL    HW217559   4.166   0.663   7.211
 5635SOL     OW17560   4.737   0.105   7.356
 5635SOL    HW117561   4.743   0.190   7.304
 5635SOL    HW217562   4.769   0.029   7.299
 5636SOL     OW17563   4.228   0.050   7.326
 5636SOL    HW117564   4.186  -0.007   7.256
 5636SOL    HW217565   4.162   0.119   7.358
 5637SOL     OW17566   4.297   0.870   6.615
 5637SOL    HW117567   4.341   0.959   6.606
 5637SOL    HW217568   4.234   0.870   6.692
 5638SOL     OW17569   5.084   0.862   6.631
 5638SOL    HW117570   5.009   0.862   6.565
 5638SOL    HW217571   5.121   0.770   6.640
 5639SOL     OW17572   4.933   0.525   5.861
 5639SOL    HW117573   4.946   0.441   5.915
 5639SOL    HW217574   4.904   0.599   5.921
 5640SOL     OW17575   4.031   0.213   6.817
 5640SOL    HW117576   4.008   0.250   6.907
 5640SOL    HW217577   4.001   0.118   6.811
 5641SOL     OW17578   3.761   1.310   6.868
 5641SOL    HW117579   3.814   1.261   6.936
 5641SOL    HW217580   3.783   1.408   6.873
 5642SOL     OW17581   4.456   0.634   6.650
 5642SOL    HW117582   4.515   0.608   6.574
 5642SOL    HW217583   4.428   0.730   6.639
 5643SOL     OW17584   4.031   0.063   6.204
 5643SOL    HW117585   4.020   0.157   6.237
 5643SOL    HW217586   4.026   0.000   6.281
 5644SOL     OW17587   5.346   0.367   5.960
 5644SOL    HW117588   5.348   0.291   6.024
 5644SOL    HW217589   5.298   0.444   6.000
 5645SOL     OW17590   4.747   0.766   6.552
 5645SOL    HW117591   4.762   0.787   6.648
 5645SOL    HW217592   4.717   0.671   6.543
 5646SOL     OW17593   4.704   1.573   7.286
 5646SOL    HW117594   4.684   1.617   7.198
 5646SOL    HW217595   4.743   1.482   7.270
 5647SOL     OW17596   4.074   0.898   7.390
 5647SOL    HW117597   4.150   0.942   7.438
 5647SOL    HW217598   4.109   0.851   7.308
 5648SOL     OW17599   5.027   0.838   5.628
 5648SOL    HW117600   5.061   0.745   5.643
 5648SOL    HW217601   5.045   0.865   5.533
 5649SOL     OW17602   4.792   1.333   6.435
 5649SOL    HW117603   4.799   1.249   6.380
 5649SOL    HW217604   4.854   1.402   6.399
 5650SOL     OW17605   4.043   0.810   6.535
 5650SOL    HW117606   4.136   0.846   6.540
 5650SOL    HW217607   4.037   0.725   6.587
 5651SOL     OW17608   4.063   0.509   6.592
 5651SOL    HW117609   4.011   0.426   6.575
 5651SOL    HW217610   4.140   0.514   6.528
 5652SOL     OW17611   4.862   0.380   7.264
 5652SOL    HW117612   4.817   0.443   7.328
 5652SOL    HW217613   4.955   0.411   7.247
 5653SOL     OW17614   4.884   0.207   7.063
 5653SOL    HW117615   4.884   0.271   7.140
 5653SOL    HW217616   4.912   0.255   6.980
 5654SOL     OW17617   3.732   1.326   5.786
 5654SOL    HW117618   3.639   1.347   5.755
 5654SOL    HW217619   3.742   1.227   5.799
 5655SOL     OW17620   3.812   1.801   6.513
 5655SOL    HW117621   3.770   1.715   6.486
 5655SOL    HW217622   3.906   1.804   6.479
 5656SOL     OW17623   4.228   1.568   6.496
 5656SOL    HW117624   4.294   1.642   6.505
 5656SOL    HW217625   4.272   1.489   6.454
 5657SOL     OW17626   4.726   0.796   6.824
 5657SOL    HW117627   4.767   0.764   6.910
 5657SOL    HW217628   4.630   0.769   6.821
 5658SOL     OW17629   3.764   0.544   6.700
 5658SOL    HW117630   3.849   0.511   6.659
 5658SOL    HW217631   3.777   0.559   6.798
 5659SOL     OW17632   3.913   0.520   7.308
 5659SOL    HW117633   3.972   0.480   7.238
 5659SOL    HW217634   3.855   0.591   7.267
 5660SOL     OW17635   5.093   0.950   7.246
 5660SOL    HW117636   5.132   1.039   7.266
 5660SOL    HW217637   5.103   0.930   7.149
 5661SOL     OW17638   4.539   0.572   5.911
 5661SOL    HW117639   4.546   0.483   5.865
 5661SOL    HW217640   4.445   0.606   5.903
 5662SOL     OW17641   3.976   1.564   7.330
 5662SOL    HW117642   3.946   1.621   7.406
 5662SOL    HW217643   3.969   1.467   7.356
 5663SOL     OW17644   4.395   0.464   6.855
 5663SOL    HW117645   4.361   0.375   6.825
 5663SOL    HW217646   4.421   0.518   6.775
 5664SOL     OW17647   4.654   1.678   7.051
 5664SOL    HW117648   4.630   1.660   6.956
 5664SOL    HW217649   4.684   1.772   7.061
 5665SOL     OW17650   4.197   0.500   5.777
 5665SOL    HW117651   4.258   0.580   5.781
 5665SOL    HW217652   4.102   0.531   5.784
 5666SOL     OW17653   3.883   1.137   7.052
 5666SOL    HW117654   3.905   1.076   7.128
 5666SOL    HW217655   3.893   1.088   6.966
 5667SOL     OW17656   5.071   1.059   6.820
 5667SOL    HW117657   5.095   0.996   6.746
 5667SOL    HW217658   4.981   1.099   6.802
 5668SOL     OW17659   5.026   0.855   5.895
 5668SOL    HW117660   4.940   0.824   5.937
 5668SOL    HW217661   5.022   0.841   5.796
 5669SOL     OW17662   4.976   1.731   6.714
 5669SOL    HW117663   5.060   1.736   6.660
 5669SOL    HW217664   4.953   1.635   6.732
 5670SOL     OW17665   3.807   1.258   6.608
 5670SOL    HW117666   3.802   1.257   6.708
 5670SOL    HW217667   3.724   1.217   6.570
 5671SOL     OW17668   4.412   1.662   7.302
 5671SOL    HW117669   4.356   1.743   7.311
 5671SOL    HW217670   4.464   1.666   7.216
 5672SOL     OW17671   5.112   1.573   6.063
 5672SOL    HW117672   5.179   1.585   5.989
 5672SOL    HW217673   5.072   1.662   6.086
 5673SOL     OW17674   3.854   1.794   7.437
 5673SOL    HW117675   3.813   1.720   7.490
 5673SOL    HW217676   3.918   1.845   7.495
 5674SOL     OW17677   5.004   0.927   6.258
 5674SOL    HW117678   5.064   0.846   6.260
 5674SOL    HW217679   5.044   0.996   6.198
 5675SOL     OW17680   4.554   1.273   7.008
 5675SOL    HW117681   4.549   1.306   7.103
 5675SOL    HW217682   4.468   1.292   6.962
 5676SOL     OW17683   4.396   1.616   5.740
 5676SOL    HW117684   4.405   1.626   5.641
 5676SOL    HW217685   4.356   1.527   5.761
 5677SOL     OW17686   3.987   0.326   6.306
 5677SOL    HW117687   3.908   0.377   6.272
 5677SOL    HW217688   3.978   0.311   6.404
 5678SOL     OW17689   4.918   1.612   5.617
 5678SOL    HW117690   4.924   1.519   5.654
 5678SOL    HW217691   4.859   1.612   5.537
 5679SOL     OW17692   4.546   1.002   6.958
 5679SOL    HW117693   4.586   1.001   6.866
 5679SOL    HW217694   4.556   1.094   6.998
 5680SOL     OW17695   4.640   0.910   5.877
 5680SOL    HW117696   4.703   0.948   5.809
 5680SOL    HW217697   4.680   0.827   5.916
 5681SOL     OW17698   4.096   1.288   7.076
 5681SOL    HW117699   4.083   1.381   7.042
 5681SOL    HW217700   4.012   1.236   7.063
 5682SOL     OW17701   4.763   1.098   6.282
 5682SOL    HW117702   4.693   1.051   6.336
 5682SOL    HW217703   4.822   1.030   6.239
 5683SOL     OW17704   4.738   0.236   6.557
 5683SOL    HW117705   4.730   0.200   6.464
 5683SOL    HW217706   4.736   0.160   6.622
 5684SOL     OW17707   4.314   1.487   6.077
 5684SOL    HW117708   4.356   1.429   6.007
 5684SOL    HW217709   4.270   1.566   6.033
 5685SOL     OW17710   3.979   1.348   5.876
 5685SOL    HW117711   3.883   1.349   5.849
 5685SOL    HW217712   3.991   1.401   5.960
 5686SOL     OW17713   3.829   1.013   7.312
 5686SOL    HW117714   3.752   0.980   7.366
 5686SOL    HW217715   3.914   0.983   7.354
 5687SOL     OW17716   4.396   0.203   7.075
 5687SOL    HW117717   4.486   0.187   7.035
 5687SOL    HW217718   4.404   0.208   7.174
 5688SOL     OW17719   3.799   0.345   5.619
 5688SOL    HW117720   3.707   0.317   5.590
 5688SOL    HW217721   3.830   0.422   5.563
 5689SOL     OW17722   5.164   0.856   6.984
 5689SOL    HW117723   5.107   0.908   6.921
 5689SOL    HW217724   5.260   0.868   6.960
 5690SOL     OW17725   3.796   0.166   5.904
 5690SOL    HW117726   3.779   0.249   5.850
 5690SOL    HW217727   3.886   0.129   5.882
 5691SOL     OW17728   4.907   1.335   5.705
 5691SOL    HW117729   4.808   1.324   5.707
 5691SOL    HW217730   4.941   1.350   5.798
 5692SOL     OW17731   4.337   0.842   7.017
 5692SOL    HW117732   4.393   0.923   7.000
 5692SOL    HW217733   4.396   0.762   7.020
 5693SOL     OW17734   4.440   0.565   7.294
 5693SOL    HW117735   4.459   0.630   7.368
 5693SOL    HW217736   4.500   0.485   7.303
 5694SOL     OW17737   5.174   1.220   7.219
 5694SOL    HW117738   5.165   1.210   7.318
 5694SOL    HW217739   5.270   1.213   7.193
 5695SOL     OW17740   4.114   1.741   7.146
 5695SOL    HW117741   4.023   1.782   7.144
 5695SOL    HW217742   4.107   1.647   7.178
 5696SOL     OW17743   4.949   0.325   6.035
 5696SOL    HW117744   5.014   0.251   6.024
 5696SOL    HW217745   4.969   0.375   6.119
 5697SOL     OW17746   4.318   0.745   6.238
 5697SOL    HW117747   4.368   0.830   6.219
 5697SOL    HW217748   4.230   0.747   6.190
 5698SOL     OW17749   4.583   1.374   5.602
 5698SOL    HW117750   4.537   1.389   5.690
 5698SOL    HW217751   4.627   1.459   5.572
 5699SOL     OW17752   4.385   1.790   6.539
 5699SOL    HW117753   4.339   1.878   6.526
 5699SOL    HW217754   4.484   1.802   6.532
 5700SOL     OW17755   4.583   0.956   6.447
 5700SOL    HW117756   4.637   0.887   6.495
 5700SOL    HW217757   4.551   1.025   6.513
 5701SOL     OW17758   4.807   0.984   5.673
 5701SOL    HW117759   4.784   1.037   5.591
 5701SOL    HW217760   4.888   0.928   5.654
 5702SOL     OW17761   3.945   1.314   7.430
 5702SOL    HW117762   3.880   1.241   7.409
 5702SOL    HW217763   3.949   1.328   7.528
 5703SOL     OW17764   3.803   1.240   6.239
 5703SOL    HW117765   3.802   1.193   6.327
 5703SOL    HW217766   3.885   1.212   6.188
 5704SOL     OW17767   4.396   1.391   7.210
 5704SOL    HW117768   4.318   1.341   7.248
 5704SOL    HW217769   4.393   1.486   7.241
 5705SOL     OW17770   4.152   0.424   6.106
 5705SOL    HW117771   4.182   0.352   6.044
 5705SOL    HW217772   4.113   0.384   6.189
 5706SOL     OW17773   5.429   1.487   6.690
 5706SOL    HW117774   5.336   1.462   6.663
 5706SOL    HW217775   5.455   1.437   6.772
 5707SOL     OW17776   4.041   0.547   6.866
 5707SOL    HW117777   4.079   0.488   6.938
 5707SOL    HW217778   4.081   0.521   6.778
 5708SOL     OW17779   4.536   1.586   6.273
 5708SOL    HW117780   4.568   1.596   6.179
 5708SOL    HW217781   4.457   1.524   6.275
 5709SOL     OW17782   5.148   0.214   6.698
 5709SOL    HW117783   5.200   0.149   6.753
 5709SOL    HW217784   5.099   0.277   6.759
 5710SOL     OW17785   4.725   0.034   6.740
 5710SOL    HW117786   4.662  -0.038   6.709
 5710SOL    HW217787   4.818  -0.002   6.740
 5711SOL     OW17788   4.494   1.330   5.887
 5711SOL    HW117789   4.448   1.243   5.904
 5711SOL    HW217790   4.585   1.327   5.928
 5712SOL     OW17791   4.342   1.567   6.870
 5712SOL    HW117792   4.337   1.649   6.927
 5712SOL    HW217793   4.431   1.564   6.825
 5713SOL     OW17794   5.076   0.052   5.754
 5713SOL    HW117795   5.111   0.011   5.670
 5713SOL    HW217796   4.986   0.014   5.774
 5714SOL     OW17797   5.024   0.453   6.277
 5714SOL    HW117798   4.965   0.533   6.281
 5714SOL    HW217799   5.039   0.418   6.370
 5715SOL     OW17800   5.317   0.221   6.468
 5715SOL    HW117801   5.233   0.220   6.522
 5715SOL    HW217802   5.319   0.304   6.412
 5716SOL     OW17803   3.763   1.077   5.886
 5716SOL    HW117804   3.862   1.066   5.877
 5716SOL    HW217805   3.723   0.991   5.918
 5717SOL     OW17806   4.599   1.646   5.923
 5717SOL    HW117807   4.522   1.611   5.869
 5717SOL    HW217808   4.567   1.717   5.985
 5718SOL     OW17809   3.954   0.628   7.561
 5718SOL    HW117810   3.861   0.626   7.598
 5718SOL    HW217811   3.955   0.589   7.469
 5719SOL     OW17812   3.955   1.713   7.931
 5719SOL    HW117813   3.989   1.790   7.985
 5719SOL    HW217814   3.999   1.713   7.841
 5720SOL     OW17815   3.954   1.434   7.986
 5720SOL    HW117816   3.928   1.530   7.986
 5720SOL    HW217817   3.883   1.380   8.031
 5721SOL     OW17818   4.330   0.964   7.571
 5721SOL    HW117819   4.337   1.048   7.517
 5721SOL    HW217820   4.376   0.977   7.659
 5722SOL     OW17821   3.751   1.596   7.565
 5722SOL    HW117822   3.732   1.500   7.586
 5722SOL    HW217823   3.718   1.654   7.640
 5723SOL     OW17824   5.413   0.922   8.060
 5723SOL    HW117825   5.508   0.893   8.068
 5723SOL    HW217826   5.405   0.987   7.985
 5724SOL     OW17827   4.533   0.004   7.950
 5724SOL    HW117828   4.573   0.095   7.941
 5724SOL    HW217829   4.433   0.012   7.956
 5725SOL     OW17830   4.322   0.729   7.718
 5725SOL    HW117831   4.346   0.798   7.650
 5725SOL    HW217832   4.244   0.762   7.772
 5726SOL     OW17833   3.800   0.811   8.237
 5726SOL    HW117834   3.899   0.799   8.246
 5726SOL    HW217835   3.776   0.906   8.258
 5727SOL     OW17836   4.589   0.348   7.643
 5727SOL    HW117837   4.648   0.411   7.594
 5727SOL    HW217838   4.608   0.254   7.614
 5728SOL     OW17839   4.045   0.943   7.690
 5728SOL    HW117840   4.127   0.982   7.648
 5728SOL    HW217841   4.018   0.861   7.641
 5729SOL     OW17842   4.835   1.776   7.685
 5729SOL    HW117843   4.775   1.714   7.735
 5729SOL    HW217844   4.866   1.732   7.600
 5730SOL     OW17845   4.188   1.743   7.771
 5730SOL    HW117846   4.221   1.782   7.857
 5730SOL    HW217847   4.264   1.736   7.706
 5731SOL     OW17848   5.124   0.107   7.874
 5731SOL    HW117849   5.100   0.070   7.784
 5731SOL    HW217850   5.223   0.123   7.878
 5732SOL     OW17851   4.106   0.700   7.928
 5732SOL    HW117852   4.151   0.610   7.925
 5732SOL    HW217853   4.012   0.689   7.961
 5733SOL     OW17854   4.338   0.122   7.565
 5733SOL    HW117855   4.436   0.100   7.572
 5733SOL    HW217856   4.307   0.105   7.472
 5734SOL     OW17857   4.263   0.064   7.960
 5734SOL    HW117858   4.182   0.065   8.018
 5734SOL    HW217859   4.266   0.147   7.905
 5735SOL     OW17860   5.158   1.188   7.489
 5735SOL    HW117861   5.190   1.112   7.546
 5735SOL    HW217862   5.066   1.215   7.519
 5736SOL     OW17863   4.021   0.035   7.619
 5736SOL    HW117864   4.070   0.119   7.598
 5736SOL    HW217865   4.083  -0.030   7.664
 5737SOL     OW17866   4.659   0.236   7.928
 5737SOL    HW117867   4.611   0.277   7.850
 5737SOL    HW217868   4.758   0.234   7.909
 5738SOL     OW17869   4.183   1.152   8.189
 5738SOL    HW117870   4.112   1.125   8.254
 5738SOL    HW217871   4.157   1.124   8.096
 5739SOL     OW17872   4.995   1.797   8.039
 5739SOL    HW117873   5.039   1.861   7.975
 5739SOL    HW217874   4.945   1.849   8.109
 5740SOL     OW17875   4.756   0.549   7.464
 5740SOL    HW117876   4.715   0.631   7.425
 5740SOL    HW217877   4.820   0.575   7.537
 5741SOL     OW17878   4.212   1.385   7.622
 5741SOL    HW117879   4.125   1.370   7.669
 5741SOL    HW217880   4.195   1.411   7.527
 5742SOL     OW17881   5.114   0.575   7.526
 5742SOL    HW117882   5.060   0.554   7.607
 5742SOL    HW217883   5.205   0.534   7.535
 5743SOL     OW17884   4.251   0.256   7.776
 5743SOL    HW117885   4.278   0.197   7.701
 5743SOL    HW217886   4.251   0.351   7.745
 5744SOL     OW17887   4.429   1.050   7.816
 5744SOL    HW117888   4.415   1.057   7.915
 5744SOL    HW217889   4.513   0.999   7.798
 5745SOL     OW17890   4.091   1.100   7.949
 5745SOL    HW117891   4.084   1.183   7.893
 5745SOL    HW217892   4.095   1.020   7.889
 5746SOL     OW17893   4.976   1.348   7.836
 5746SOL    HW117894   5.026   1.425   7.876
 5746SOL    HW217895   4.881   1.350   7.868
 5747SOL     OW17896   5.306   0.639   7.920
 5747SOL    HW117897   5.275   0.700   7.993
 5747SOL    HW217898   5.356   0.691   7.851
 5748SOL     OW17899   4.933   0.525   7.723
 5748SOL    HW117900   4.946   0.441   7.777
 5748SOL    HW217901   4.904   0.599   7.783
 5749SOL     OW17902   5.346   0.367   7.822
 5749SOL    HW117903   5.348   0.291   7.886
 5749SOL    HW217904   5.298   0.444   7.862
 5750SOL     OW17905   5.027   0.838   7.490
 5750SOL    HW117906   5.061   0.745   7.505
 5750SOL    HW217907   5.045   0.865   7.395
 5751SOL     OW17908   3.732   1.326   7.648
 5751SOL    HW117909   3.639   1.347   7.617
 5751SOL    HW217910   3.742   1.227   7.661
 5752SOL     OW17911   4.539   0.572   7.773
 5752SOL    HW117912   4.546   0.483   7.727
 5752SOL    HW217913   4.445   0.606   7.765
 5753SOL     OW17914   4.197   0.500   7.639
 5753SOL    HW117915   4.258   0.580   7.643
 5753SOL    HW217916   4.102   0.531   7.646
 5754SOL     OW17917   5.026   0.855   7.757
 5754SOL    HW117918   4.940   0.824   7.799
 5754SOL    HW217919   5.022   0.841   7.658
 5755SOL     OW17920   5.112   1.573   7.925
 5755SOL    HW117921   5.179   1.585   7.851
 5755SOL    HW217922   5.072   1.662   7.948
 5756SOL     OW17923   4.396   1.616   7.602
 5756SOL    HW117924   4.405   1.626   7.503
 5756SOL    HW217925   4.356   1.527   7.623
 5757SOL     OW17926   4.918   1.612   7.479
 5757SOL    HW117927   4.924   1.519   7.516
 5757SOL    HW217928   4.859   1.612   7.399
 5758SOL     OW17929   4.640   0.910   7.739
 5758SOL    HW117930   4.703   0.948   7.671
 5758SOL    HW217931   4.680   0.827   7.778
 5759SOL     OW17932   4.314   1.487   7.939
 5759SOL    HW117933   4.356   1.429   7.869
 5759SOL    HW217934   4.270   1.566   7.895
 5760SOL     OW17935   3.979   1.348   7.738
 5760SOL    HW117936   3.883   1.349   7.711
 5760SOL    HW217937   3.991   1.401   7.822
 5761SOL     OW17938   3.799   0.345   7.481
 5761SOL    HW117939   3.707   0.317   7.452
 5761SOL    HW217940   3.830   0.422   7.425
 5762SOL     OW17941   3.796   0.166   7.766
 5762SOL    HW117942   3.779   0.249   7.712
 5762SOL    HW217943   3.886   0.129   7.744
 5763SOL     OW17944   4.907   1.335   7.567
 5763SOL    HW117945   4.808   1.324   7.569
 5763SOL    HW217946   4.941   1.350   7.660
 5764SOL     OW17947   5.217   1.767   8.407
 5764SOL    HW117948   5.250   1.831   8.338
 5764SOL    HW217949   5.283   1.761   8.482
 5765SOL     OW17950   4.949   0.325   7.897
 5765SOL    HW117951   5.014   0.251   7.886
 5765SOL    HW217952   4.969   0.375   7.981
 5766SOL     OW17953   4.318   0.745   8.100
 5766SOL    HW117954   4.368   0.830   8.081
 5766SOL    HW217955   4.230   0.747   8.052
 5767SOL     OW17956   4.583   1.374   7.464
 5767SOL    HW117957   4.537   1.389   7.552
 5767SOL    HW217958   4.627   1.459   7.434
 5768SOL     OW17959   4.807   0.984   7.535
 5768SOL    HW117960   4.784   1.037   7.453
 5768SOL    HW217961   4.888   0.928   7.516
 5769SOL     OW17962   4.152   0.424   7.968
 5769SOL    HW117963   4.182   0.352   7.906
 5769SOL    HW217964   4.113   0.384   8.051
 5770SOL     OW17965   4.494   1.330   7.749
 5770SOL    HW117966   4.448   1.243   7.766
 5770SOL    HW217967   4.585   1.327   7.790
 5771SOL     OW17968   5.076   0.052   7.616
 5771SOL    HW117969   5.111   0.011   7.532
 5771SOL    HW217970   4.986   0.014   7.636
 5772SOL     OW17971   3.763   1.077   7.748
 5772SOL    HW117972   3.862   1.066   7.739
 5772SOL    HW217973   3.723   0.991   7.780
 5773SOL     OW17974   4.599   1.646   7.785
 5773SOL    HW117975   4.522   1.611   7.731
 5773SOL    HW217976   4.567   1.717   7.847
 5774SOL     OW17977   3.954   2.490   0.113
 5774SOL    HW117978   3.861   2.488   0.150
 5774SOL    HW217979   3.955   2.451   0.021
 5775SOL     OW17980   3.949   2.137   0.996
 5775SOL    HW117981   3.984   2.120   1.088
 5775SOL    HW217982   3.861   2.092   0.984
 5776SOL     OW17983   3.743   2.230   0.647
 5776SOL    HW117984   3.661   2.273   0.686
 5776SOL    HW217985   3.715   2.157   0.584
 5777SOL     OW17986   4.293   3.137   1.165
 5777SOL    HW117987   4.200   3.130   1.128
 5777SOL    HW217988   4.304   3.226   1.209
 5778SOL     OW17989   5.279   3.373   0.703
 5778SOL    HW117990   5.222   3.357   0.784
 5778SOL    HW217991   5.220   3.383   0.623
 5779SOL     OW17992   4.859   2.565   0.717
 5779SOL    HW117993   4.916   2.643   0.692
 5779SOL    HW217994   4.799   2.591   0.793
 5780SOL     OW17995   4.492   3.006   1.023
 5780SOL    HW117996   4.414   3.023   1.083
 5780SOL    HW217997   4.526   3.093   0.987
 5781SOL     OW17998   4.574   2.660   1.823
 5781SOL    HW117999   4.570   2.736   1.888
 5781SOL    HW218000   4.596   2.696   1.732
 5782SOL     OW18001   4.409   2.874   0.665
 5782SOL    HW118002   4.478   2.858   0.735
 5782SOL    HW218003   4.336   2.931   0.703
 5783SOL     OW18004   4.410   3.023   1.803
 5783SOL    HW118005   4.470   3.102   1.817
 5783SOL    HW218006   4.324   3.054   1.762
 5784SOL     OW18007   4.059   3.297   1.061
 5784SOL    HW118008   3.981   3.266   1.008
 5784SOL    HW218009   4.117   3.355   1.004
 5785SOL     OW18010   5.184   3.367   1.339
 5785SOL    HW118011   5.208   3.461   1.365
 5785SOL    HW218012   5.168   3.313   1.421
 5786SOL     OW18013   4.162   2.254   1.499
 5786SOL    HW118014   4.244   2.198   1.508
 5786SOL    HW218015   4.081   2.196   1.503
 5787SOL     OW18016   3.955   3.575   0.483
 5787SOL    HW118017   3.989   3.652   0.537
 5787SOL    HW218018   3.999   3.575   0.393
 5788SOL     OW18019   4.851   3.203   1.690
 5788SOL    HW118020   4.898   3.203   1.778
 5788SOL    HW218021   4.803   3.116   1.679
 5789SOL     OW18022   3.954   3.296   0.538
 5789SOL    HW118023   3.928   3.392   0.538
 5789SOL    HW218024   3.883   3.242   0.583
 5790SOL     OW18025   3.964   2.953   0.886
 5790SOL    HW118026   3.978   2.869   0.938
 5790SOL    HW218027   3.909   3.017   0.941
 5791SOL     OW18028   4.344   3.648   1.439
 5791SOL    HW118029   4.252   3.631   1.474
 5791SOL    HW218030   4.372   3.740   1.465
 5792SOL     OW18031   4.330   2.826   0.123
 5792SOL    HW118032   4.337   2.910   0.069
 5792SOL    HW218033   4.376   2.839   0.211
 5793SOL     OW18034   3.846   2.505   0.563
 5793SOL    HW118035   3.801   2.417   0.580
 5793SOL    HW218036   3.845   2.559   0.647
 5794SOL     OW18037   3.751   3.458   0.117
 5794SOL    HW118038   3.732   3.362   0.138
 5794SOL    HW218039   3.718   3.516   0.192
 5795SOL     OW18040   5.413   2.784   0.612
 5795SOL    HW118041   5.508   2.755   0.620
 5795SOL    HW218042   5.405   2.849   0.537
 5796SOL     OW18043   3.837   2.599   1.597
 5796SOL    HW118044   3.925   2.586   1.642
 5796SOL    HW218045   3.824   2.696   1.575
 5797SOL     OW18046   4.337   3.227   0.726
 5797SOL    HW118047   4.288   3.140   0.735
 5797SOL    HW218048   4.314   3.270   0.639
 5798SOL     OW18049   5.017   3.090   1.423
 5798SOL    HW118050   5.054   3.017   1.365
 5798SOL    HW218051   5.069   3.095   1.508
 5799SOL     OW18052   4.533   1.866   0.502
 5799SOL    HW118053   4.573   1.957   0.493
 5799SOL    HW218054   4.433   1.874   0.508
 5800SOL     OW18055   3.921   2.838   1.264
 5800SOL    HW118056   4.010   2.793   1.250
 5800SOL    HW218057   3.848   2.773   1.245
 5801SOL     OW18058   4.911   3.654   1.616
 5801SOL    HW118059   4.935   3.714   1.540
 5801SOL    HW218060   4.918   3.559   1.586
 5802SOL     OW18061   4.041   2.113   1.801
 5802SOL    HW118062   4.112   2.184   1.807
 5802SOL    HW218063   3.953   2.152   1.829
 5803SOL     OW18064   5.190   3.279   0.953
 5803SOL    HW118065   5.131   3.285   1.033
 5803SOL    HW218066   5.175   3.191   0.907
 5804SOL     OW18067   4.322   2.591   0.270
 5804SOL    HW118068   4.346   2.660   0.202
 5804SOL    HW218069   4.244   2.624   0.324
 5805SOL     OW18070   5.005   2.207   0.944
 5805SOL    HW118071   4.919   2.157   0.931
 5805SOL    HW218072   5.067   2.153   1.000
 5806SOL     OW18073   4.531   2.467   1.465
 5806SOL    HW118074   4.484   2.464   1.554
 5806SOL    HW218075   4.480   2.412   1.399
 5807SOL     OW18076   5.118   2.331   1.674
 5807SOL    HW118077   5.098   2.374   1.762
 5807SOL    HW218078   5.196   2.269   1.683
 5808SOL     OW18079   4.697   2.752   1.572
 5808SOL    HW118080   4.743   2.668   1.543
 5808SOL    HW218081   4.641   2.786   1.497
 5809SOL     OW18082   4.715   2.272   1.242
 5809SOL    HW118083   4.638   2.306   1.296
 5809SOL    HW218084   4.681   2.221   1.163
 5810SOL     OW18085   4.765   2.563   0.429
 5810SOL    HW118086   4.791   2.559   0.525
 5810SOL    HW218087   4.680   2.512   0.415
 5811SOL     OW18088   3.800   2.673   0.789
 5811SOL    HW118089   3.899   2.661   0.798
 5811SOL    HW218090   3.776   2.768   0.810
 5812SOL     OW18091   3.854   3.683   1.571
 5812SOL    HW118092   3.844   3.668   1.670
 5812SOL    HW218093   3.768   3.719   1.535
 5813SOL     OW18094   4.589   2.210   0.195
 5813SOL    HW118095   4.648   2.273   0.146
 5813SOL    HW218096   4.608   2.116   0.166
 5814SOL     OW18097   5.086   3.006   0.545
 5814SOL    HW118098   5.169   2.977   0.497
 5814SOL    HW218099   5.037   3.073   0.489
 5815SOL     OW18100   4.274   2.058   0.885
 5815SOL    HW118101   4.269   2.053   0.985
 5815SOL    HW218102   4.276   2.154   0.856
 5816SOL     OW18103   4.732   3.318   0.477
 5816SOL    HW118104   4.686   3.390   0.425
 5816SOL    HW218105   4.728   3.338   0.575
 5817SOL     OW18106   4.075   3.663   0.853
 5817SOL    HW118107   4.125   3.577   0.859
 5817SOL    HW218108   4.140   3.740   0.850
 5818SOL     OW18109   4.951   3.412   1.506
 5818SOL    HW118110   4.957   3.335   1.570
 5818SOL    HW218111   4.899   3.386   1.426
 5819SOL     OW18112   4.045   2.805   0.242
 5819SOL    HW118113   4.127   2.844   0.200
 5819SOL    HW218114   4.018   2.723   0.193
 5820SOL     OW18115   4.185   3.128   1.727
 5820SOL    HW118116   4.135   3.129   1.641
 5820SOL    HW218117   4.122   3.110   1.803
 5821SOL     OW18118   4.835   3.638   0.237
 5821SOL    HW118119   4.775   3.576   0.287
 5821SOL    HW218120   4.866   3.594   0.152
 5822SOL     OW18121   3.926   2.147   1.498
 5822SOL    HW118122   3.846   2.207   1.485
 5822SOL    HW218123   3.916   2.098   1.584
 5823SOL     OW18124   4.188   3.605   0.323
 5823SOL    HW118125   4.221   3.644   0.409
 5823SOL    HW218126   4.264   3.598   0.258
 5824SOL     OW18127   5.124   1.969   0.426
 5824SOL    HW118128   5.100   1.932   0.336
 5824SOL    HW218129   5.223   1.985   0.430
 5825SOL     OW18130   3.973   3.647   1.241
 5825SOL    HW118131   4.030   3.582   1.291
 5825SOL    HW218132   3.957   3.614   1.148
 5826SOL     OW18133   4.664   3.560   0.904
 5826SOL    HW118134   4.744   3.503   0.925
 5826SOL    HW218135   4.615   3.520   0.827
 5827SOL     OW18136   4.106   2.562   0.480
 5827SOL    HW118137   4.151   2.472   0.477
 5827SOL    HW218138   4.012   2.551   0.513
 5828SOL     OW18139   4.338   1.984   0.117
 5828SOL    HW118140   4.436   1.962   0.124
 5828SOL    HW218141   4.307   1.967   0.024
 5829SOL     OW18142   4.505   2.126   1.749
 5829SOL    HW118143   4.572   2.065   1.792
 5829SOL    HW218144   4.432   2.145   1.814
 5830SOL     OW18145   4.612   3.376   1.195
 5830SOL    HW118146   4.589   3.351   1.101
 5830SOL    HW218147   4.673   3.307   1.234
 5831SOL     OW18148   5.075   2.452   1.433
 5831SOL    HW118149   5.103   2.409   1.518
 5831SOL    HW218150   5.100   2.548   1.434
 5832SOL     OW18151   4.527   3.264   0.924
 5832SOL    HW118152   4.617   3.278   0.882
 5832SOL    HW218153   4.456   3.266   0.853
 5833SOL     OW18154   4.646   2.365   0.899
 5833SOL    HW118155   4.621   2.356   0.803
 5833SOL    HW218156   4.694   2.283   0.930
 5834SOL     OW18157   4.263   1.926   0.512
 5834SOL    HW118158   4.182   1.927   0.570
 5834SOL    HW218159   4.266   2.009   0.457
 5835SOL     OW18160   5.158   3.050   0.041
 5835SOL    HW118161   5.190   2.974   0.098
 5835SOL    HW218162   5.066   3.077   0.071
 5836SOL     OW18163   4.021   1.897   0.171
 5836SOL    HW118164   4.070   1.981   0.150
 5836SOL    HW218165   4.083   1.832   0.216
 5837SOL     OW18166   4.659   2.098   0.480
 5837SOL    HW118167   4.611   2.139   0.402
 5837SOL    HW218168   4.758   2.096   0.461
 5838SOL     OW18169   4.800   2.545   1.464
 5838SOL    HW118170   4.720   2.484   1.467
 5838SOL    HW218171   4.881   2.492   1.440
 5839SOL     OW18172   4.951   3.432   0.793
 5839SOL    HW118173   4.972   3.506   0.728
 5839SOL    HW218174   5.019   3.432   0.866
 5840SOL     OW18175   4.183   3.014   0.741
 5840SOL    HW118176   4.112   2.987   0.806
 5840SOL    HW218177   4.157   2.986   0.648
 5841SOL     OW18178   4.995   3.659   0.591
 5841SOL    HW118179   5.039   3.723   0.527
 5841SOL    HW218180   4.945   3.711   0.661
 5842SOL     OW18181   4.756   2.411   0.016
 5842SOL    HW118182   4.715   2.493  -0.023
 5842SOL    HW218183   4.820   2.437   0.089
 5843SOL     OW18184   3.802   2.418   1.386
 5843SOL    HW118185   3.894   2.417   1.345
 5843SOL    HW218186   3.796   2.492   1.453
 5844SOL     OW18187   4.285   2.084   1.147
 5844SOL    HW118188   4.323   2.000   1.184
 5844SOL    HW218189   4.197   2.103   1.191
 5845SOL     OW18190   4.590   2.316   0.642
 5845SOL    HW118191   4.558   2.388   0.580
 5845SOL    HW218192   4.614   2.235   0.589
 5846SOL     OW18193   4.741   1.901   0.753
 5846SOL    HW118194   4.669   1.906   0.684
 5846SOL    HW218195   4.717   1.832   0.822
 5847SOL     OW18196   5.153   3.035   0.867
 5847SOL    HW118197   5.098   2.951   0.860
 5847SOL    HW218198   5.179   3.064   0.775
 5848SOL     OW18199   4.212   3.247   0.174
 5848SOL    HW118200   4.125   3.232   0.221
 5848SOL    HW218201   4.195   3.273   0.079
 5849SOL     OW18202   5.114   2.437   0.078
 5849SOL    HW118203   5.060   2.416   0.159
 5849SOL    HW218204   5.205   2.396   0.087
 5850SOL     OW18205   4.251   2.118   0.328
 5850SOL    HW118206   4.278   2.059   0.253
 5850SOL    HW218207   4.251   2.213   0.297
 5851SOL     OW18208   4.788   3.209   1.340
 5851SOL    HW118209   4.708   3.186   1.395
 5851SOL    HW218210   4.871   3.183   1.389
 5852SOL     OW18211   5.316   3.491   1.625
 5852SOL    HW118212   5.343   3.525   1.535
 5852SOL    HW218213   5.395   3.453   1.671
 5853SOL     OW18214   4.835   3.057   1.100
 5853SOL    HW118215   4.795   3.101   1.181
 5853SOL    HW218216   4.794   3.094   1.017
 5854SOL     OW18217   4.639   1.951   1.402
 5854SOL    HW118218   4.664   1.931   1.307
 5854SOL    HW218219   4.711   2.007   1.444
 5855SOL     OW18220   4.704   2.978   1.719
 5855SOL    HW118221   4.605   2.984   1.729
 5855SOL    HW218222   4.727   2.898   1.663
 5856SOL     OW18223   4.429   2.912   0.368
 5856SOL    HW118224   4.415   2.919   0.467
 5856SOL    HW218225   4.513   2.861   0.350
 5857SOL     OW18226   4.134   2.675   1.251
 5857SOL    HW118227   4.220   2.687   1.301
 5857SOL    HW218228   4.092   2.588   1.278
 5858SOL     OW18229   4.998   2.248   1.262
 5858SOL    HW118230   5.019   2.322   1.326
 5858SOL    HW218231   4.909   2.265   1.219
 5859SOL     OW18232   3.788   3.426   1.331
 5859SOL    HW118233   3.742   3.508   1.297
 5859SOL    HW218234   3.886   3.445   1.340
 5860SOL     OW18235   4.091   2.962   0.501
 5860SOL    HW118236   4.084   3.045   0.445
 5860SOL    HW218237   4.095   2.882   0.441
 5861SOL     OW18238   4.290   2.399   0.865
 5861SOL    HW118239   4.302   2.465   0.791
 5861SOL    HW218240   4.336   2.433   0.948
 5862SOL     OW18241   4.976   3.210   0.388
 5862SOL    HW118242   5.026   3.287   0.428
 5862SOL    HW218243   4.881   3.212   0.420
 5863SOL     OW18244   4.996   3.307   1.142
 5863SOL    HW118245   5.043   3.320   1.229
 5863SOL    HW218246   4.930   3.233   1.151
 5864SOL     OW18247   4.078   3.372   1.329
 5864SOL    HW118248   4.057   3.328   1.242
 5864SOL    HW218249   4.175   3.398   1.332
 5865SOL     OW18250   4.126   2.613   1.598
 5865SOL    HW118251   4.194   2.668   1.551
 5865SOL    HW218252   4.166   2.525   1.625
 5866SOL     OW18253   4.737   1.967   1.770
 5866SOL    HW118254   4.743   2.052   1.718
 5866SOL    HW218255   4.769   1.891   1.713
 5867SOL     OW18256   4.228   1.912   1.740
 5867SOL    HW118257   4.186   1.855   1.670
 5867SOL    HW218258   4.162   1.981   1.772
 5868SOL     OW18259   4.297   2.732   1.029
 5868SOL    HW118260   4.341   2.821   1.020
 5868SOL    HW218261   4.234   2.732   1.106
 5869SOL     OW18262   5.084   2.724   1.045
 5869SOL    HW118263   5.009   2.724   0.979
 5869SOL    HW218264   5.121   2.632   1.054
 5870SOL     OW18265   4.933   2.387   0.275
 5870SOL    HW118266   4.946   2.303   0.329
 5870SOL    HW218267   4.904   2.461   0.335
 5871SOL     OW18268   4.031   2.075   1.231
 5871SOL    HW118269   4.008   2.112   1.321
 5871SOL    HW218270   4.001   1.980   1.225
 5872SOL     OW18271   3.761   3.172   1.282
 5872SOL    HW118272   3.814   3.123   1.350
 5872SOL    HW218273   3.783   3.270   1.287
 5873SOL     OW18274   4.456   2.496   1.064
 5873SOL    HW118275   4.515   2.470   0.988
 5873SOL    HW218276   4.428   2.592   1.053
 5874SOL     OW18277   4.031   1.925   0.618
 5874SOL    HW118278   4.020   2.019   0.651
 5874SOL    HW218279   4.026   1.862   0.695
 5875SOL     OW18280   5.346   2.229   0.374
 5875SOL    HW118281   5.348   2.153   0.438
 5875SOL    HW218282   5.298   2.306   0.414
 5876SOL     OW18283   4.747   2.628   0.966
 5876SOL    HW118284   4.762   2.649   1.062
 5876SOL    HW218285   4.717   2.533   0.957
 5877SOL     OW18286   4.704   3.435   1.700
 5877SOL    HW118287   4.684   3.479   1.612
 5877SOL    HW218288   4.743   3.344   1.684
 5878SOL     OW18289   4.074   2.760   1.804
 5878SOL    HW118290   4.150   2.804   1.852
 5878SOL    HW218291   4.109   2.713   1.722
 5879SOL     OW18292   5.027   2.700   0.042
 5879SOL    HW118293   5.061   2.607   0.057
 5879SOL    HW218294   5.045   2.727  -0.053
 5880SOL     OW18295   4.792   3.195   0.849
 5880SOL    HW118296   4.799   3.111   0.794
 5880SOL    HW218297   4.854   3.264   0.813
 5881SOL     OW18298   4.043   2.672   0.949
 5881SOL    HW118299   4.136   2.708   0.954
 5881SOL    HW218300   4.037   2.587   1.001
 5882SOL     OW18301   4.063   2.371   1.006
 5882SOL    HW118302   4.011   2.288   0.989
 5882SOL    HW218303   4.140   2.376   0.942
 5883SOL     OW18304   4.862   2.242   1.678
 5883SOL    HW118305   4.817   2.305   1.742
 5883SOL    HW218306   4.955   2.273   1.661
 5884SOL     OW18307   4.884   2.069   1.477
 5884SOL    HW118308   4.884   2.133   1.554
 5884SOL    HW218309   4.912   2.117   1.394
 5885SOL     OW18310   3.732   3.188   0.200
 5885SOL    HW118311   3.639   3.209   0.169
 5885SOL    HW218312   3.742   3.089   0.213
 5886SOL     OW18313   3.812   3.663   0.927
 5886SOL    HW118314   3.770   3.577   0.900
 5886SOL    HW218315   3.906   3.666   0.893
 5887SOL     OW18316   4.228   3.430   0.910
 5887SOL    HW118317   4.294   3.504   0.919
 5887SOL    HW218318   4.272   3.351   0.868
 5888SOL     OW18319   4.726   2.658   1.238
 5888SOL    HW118320   4.767   2.626   1.324
 5888SOL    HW218321   4.630   2.631   1.235
 5889SOL     OW18322   3.764   2.406   1.114
 5889SOL    HW118323   3.849   2.373   1.073
 5889SOL    HW218324   3.777   2.421   1.212
 5890SOL     OW18325   3.913   2.382   1.722
 5890SOL    HW118326   3.972   2.342   1.652
 5890SOL    HW218327   3.855   2.453   1.681
 5891SOL     OW18328   5.093   2.812   1.660
 5891SOL    HW118329   5.132   2.901   1.680
 5891SOL    HW218330   5.103   2.792   1.563
 5892SOL     OW18331   4.539   2.434   0.325
 5892SOL    HW118332   4.546   2.345   0.279
 5892SOL    HW218333   4.445   2.468   0.317
 5893SOL     OW18334   3.976   3.426   1.744
 5893SOL    HW118335   3.946   3.483   1.820
 5893SOL    HW218336   3.969   3.329   1.770
 5894SOL     OW18337   4.395   2.326   1.269
 5894SOL    HW118338   4.361   2.237   1.239
 5894SOL    HW218339   4.421   2.380   1.189
 5895SOL     OW18340   4.654   3.540   1.465
 5895SOL    HW118341   4.630   3.522   1.370
 5895SOL    HW218342   4.684   3.634   1.475
 5896SOL     OW18343   4.197   2.362   0.191
 5896SOL    HW118344   4.258   2.442   0.195
 5896SOL    HW218345   4.102   2.393   0.198
 5897SOL     OW18346   3.883   2.999   1.466
 5897SOL    HW118347   3.905   2.938   1.542
 5897SOL    HW218348   3.893   2.950   1.380
 5898SOL     OW18349   5.071   2.921   1.234
 5898SOL    HW118350   5.095   2.858   1.160
 5898SOL    HW218351   4.981   2.961   1.216
 5899SOL     OW18352   5.026   2.717   0.309
 5899SOL    HW118353   4.940   2.686   0.351
 5899SOL    HW218354   5.022   2.703   0.210
 5900SOL     OW18355   4.976   3.593   1.128
 5900SOL    HW118356   5.060   3.598   1.074
 5900SOL    HW218357   4.953   3.497   1.146
 5901SOL     OW18358   3.807   3.120   1.022
 5901SOL    HW118359   3.802   3.119   1.122
 5901SOL    HW218360   3.724   3.079   0.984
 5902SOL     OW18361   4.412   3.524   1.716
 5902SOL    HW118362   4.356   3.605   1.725
 5902SOL    HW218363   4.464   3.528   1.630
 5903SOL     OW18364   4.627   1.948   0.133
 5903SOL    HW118365   4.678   1.949   0.047
 5903SOL    HW218366   4.683   1.906   0.204
 5904SOL     OW18367   5.450   1.997   0.523
 5904SOL    HW118368   5.523   1.980   0.456
 5904SOL    HW218369   5.419   1.910   0.561
 5905SOL     OW18370   5.112   3.435   0.477
 5905SOL    HW118371   5.179   3.447   0.403
 5905SOL    HW218372   5.072   3.524   0.500
 5906SOL     OW18373   3.854   3.656   1.851
 5906SOL    HW118374   3.813   3.582   1.904
 5906SOL    HW218375   3.918   3.707   1.909
 5907SOL     OW18376   5.004   2.789   0.672
 5907SOL    HW118377   5.064   2.708   0.674
 5907SOL    HW218378   5.044   2.858   0.612
 5908SOL     OW18379   4.554   3.135   1.422
 5908SOL    HW118380   4.549   3.168   1.517
 5908SOL    HW218381   4.468   3.154   1.376
 5909SOL     OW18382   4.396   3.478   0.154
 5909SOL    HW118383   4.405   3.488   0.055
 5909SOL    HW218384   4.356   3.389   0.175
 5910SOL     OW18385   3.987   2.188   0.720
 5910SOL    HW118386   3.908   2.239   0.686
 5910SOL    HW218387   3.978   2.173   0.818
 5911SOL     OW18388   4.918   3.474   0.031
 5911SOL    HW118389   4.924   3.381   0.068
 5911SOL    HW218390   4.859   3.474  -0.049
 5912SOL     OW18391   4.546   2.864   1.372
 5912SOL    HW118392   4.586   2.863   1.280
 5912SOL    HW218393   4.556   2.956   1.412
 5913SOL     OW18394   4.640   2.772   0.291
 5913SOL    HW118395   4.703   2.810   0.223
 5913SOL    HW218396   4.680   2.689   0.330
 5914SOL     OW18397   4.096   3.150   1.490
 5914SOL    HW118398   4.083   3.243   1.456
 5914SOL    HW218399   4.012   3.098   1.477
 5915SOL     OW18400   4.763   2.960   0.696
 5915SOL    HW118401   4.693   2.913   0.750
 5915SOL    HW218402   4.822   2.892   0.653
 5916SOL     OW18403   4.738   2.098   0.971
 5916SOL    HW118404   4.730   2.062   0.878
 5916SOL    HW218405   4.736   2.022   1.036
 5917SOL     OW18406   4.314   3.349   0.491
 5917SOL    HW118407   4.356   3.291   0.421
 5917SOL    HW218408   4.270   3.428   0.447
 5918SOL     OW18409   3.979   3.210   0.290
 5918SOL    HW118410   3.883   3.211   0.263
 5918SOL    HW218411   3.991   3.263   0.374
 5919SOL     OW18412   3.829   2.875   1.726
 5919SOL    HW118413   3.752   2.842   1.780
 5919SOL    HW218414   3.914   2.845   1.768
 5920SOL     OW18415   4.396   2.065   1.489
 5920SOL    HW118416   4.486   2.049   1.449
 5920SOL    HW218417   4.404   2.070   1.588
 5921SOL     OW18418   3.799   2.207   0.033
 5921SOL    HW118419   3.707   2.179   0.004
 5921SOL    HW218420   3.830   2.284  -0.023
 5922SOL     OW18421   5.164   2.718   1.398
 5922SOL    HW118422   5.107   2.770   1.335
 5922SOL    HW218423   5.260   2.730   1.374
 5923SOL     OW18424   3.796   2.028   0.318
 5923SOL    HW118425   3.779   2.111   0.264
 5923SOL    HW218426   3.886   1.991   0.296
 5924SOL     OW18427   4.907   3.197   0.119
 5924SOL    HW118428   4.808   3.186   0.121
 5924SOL    HW218429   4.941   3.212   0.212
 5925SOL     OW18430   4.337   2.704   1.431
 5925SOL    HW118431   4.393   2.785   1.414
 5925SOL    HW218432   4.396   2.624   1.434
 5926SOL     OW18433   4.440   2.427   1.708
 5926SOL    HW118434   4.459   2.492   1.782
 5926SOL    HW218435   4.500   2.347   1.717
 5927SOL     OW18436   5.174   3.082   1.633
 5927SOL    HW118437   5.165   3.072   1.732
 5927SOL    HW218438   5.270   3.075   1.607
 5928SOL     OW18439   4.114   3.603   1.560
 5928SOL    HW118440   4.023   3.644   1.558
 5928SOL    HW218441   4.107   3.509   1.592
 5929SOL     OW18442   4.949   2.187   0.449
 5929SOL    HW118443   5.014   2.113   0.438
 5929SOL    HW218444   4.969   2.237   0.533
 5930SOL     OW18445   4.318   2.607   0.652
 5930SOL    HW118446   4.368   2.692   0.633
 5930SOL    HW218447   4.230   2.609   0.604
 5931SOL     OW18448   4.583   3.236   0.016
 5931SOL    HW118449   4.537   3.251   0.104
 5931SOL    HW218450   4.627   3.321  -0.014
 5932SOL     OW18451   4.385   3.652   0.953
 5932SOL    HW118452   4.339   3.740   0.940
 5932SOL    HW218453   4.484   3.664   0.946
 5933SOL     OW18454   4.583   2.818   0.861
 5933SOL    HW118455   4.637   2.749   0.909
 5933SOL    HW218456   4.551   2.887   0.927
 5934SOL     OW18457   4.807   2.846   0.087
 5934SOL    HW118458   4.784   2.899   0.005
 5934SOL    HW218459   4.888   2.790   0.068
 5935SOL     OW18460   3.945   3.176   1.844
 5935SOL    HW118461   3.880   3.103   1.823
 5935SOL    HW218462   3.949   3.190   1.942
 5936SOL     OW18463   3.803   3.102   0.653
 5936SOL    HW118464   3.802   3.055   0.741
 5936SOL    HW218465   3.885   3.074   0.602
 5937SOL     OW18466   4.396   3.253   1.624
 5937SOL    HW118467   4.318   3.203   1.662
 5937SOL    HW218468   4.393   3.348   1.655
 5938SOL     OW18469   4.152   2.286   0.520
 5938SOL    HW118470   4.182   2.214   0.458
 5938SOL    HW218471   4.113   2.246   0.603
 5939SOL     OW18472   5.429   3.349   1.104
 5939SOL    HW118473   5.336   3.324   1.077
 5939SOL    HW218474   5.455   3.299   1.186
 5940SOL     OW18475   4.041   2.409   1.280
 5940SOL    HW118476   4.079   2.350   1.352
 5940SOL    HW218477   4.081   2.383   1.192
 5941SOL     OW18478   4.536   3.448   0.687
 5941SOL    HW118479   4.568   3.458   0.593
 5941SOL    HW218480   4.457   3.386   0.689
 5942SOL     OW18481   5.148   2.076   1.112
 5942SOL    HW118482   5.200   2.011   1.167
 5942SOL    HW218483   5.099   2.139   1.173
 5943SOL     OW18484   4.725   1.896   1.154
 5943SOL    HW118485   4.662   1.824   1.123
 5943SOL    HW218486   4.818   1.860   1.154
 5944SOL     OW18487   4.494   3.192   0.301
 5944SOL    HW118488   4.448   3.105   0.318
 5944SOL    HW218489   4.585   3.189   0.342
 5945SOL     OW18490   4.342   3.429   1.284
 5945SOL    HW118491   4.337   3.511   1.341
 5945SOL    HW218492   4.431   3.426   1.239
 5946SOL     OW18493   5.076   1.914   0.168
 5946SOL    HW118494   5.111   1.873   0.084
 5946SOL    HW218495   4.986   1.876   0.188
 5947SOL     OW18496   5.024   2.315   0.691
 5947SOL    HW118497   4.965   2.395   0.695
 5947SOL    HW218498   5.039   2.280   0.784
 5948SOL     OW18499   5.317   2.083   0.882
 5948SOL    HW118500   5.233   2.082   0.936
 5948SOL    HW218501   5.319   2.166   0.826
 5949SOL     OW18502   3.763   2.939   0.300
 5949SOL    HW118503   3.862   2.928   0.291
 5949SOL    HW218504   3.723   2.853   0.332
 5950SOL     OW18505   4.599   3.508   0.337
 5950SOL    HW118506   4.522   3.473   0.283
 5950SOL    HW218507   4.567   3.579   0.399
 5951SOL     OW18508   3.954   2.490   1.975
 5951SOL    HW118509   3.861   2.488   2.012
 5951SOL    HW218510   3.955   2.451   1.883
 5952SOL     OW18511   3.949   2.137   2.858
 5952SOL    HW118512   3.984   2.120   2.950
 5952SOL    HW218513   3.861   2.092   2.846
 5953SOL     OW18514   3.743   2.230   2.509
 5953SOL    HW118515   3.661   2.273   2.548
 5953SOL    HW218516   3.715   2.157   2.446
 5954SOL     OW18517   4.293   3.137   3.027
 5954SOL    HW118518   4.200   3.130   2.990
 5954SOL    HW218519   4.304   3.226   3.071
 5955SOL     OW18520   5.279   3.373   2.565
 5955SOL    HW118521   5.222   3.357   2.646
 5955SOL    HW218522   5.220   3.383   2.485
 5956SOL     OW18523   4.859   2.565   2.579
 5956SOL    HW118524   4.916   2.643   2.554
 5956SOL    HW218525   4.799   2.591   2.655
 5957SOL     OW18526   4.492   3.006   2.885
 5957SOL    HW118527   4.414   3.023   2.945
 5957SOL    HW218528   4.526   3.093   2.849
 5958SOL     OW18529   4.574   2.660   3.685
 5958SOL    HW118530   4.570   2.736   3.750
 5958SOL    HW218531   4.596   2.696   3.594
 5959SOL     OW18532   4.409   2.874   2.527
 5959SOL    HW118533   4.478   2.858   2.597
 5959SOL    HW218534   4.336   2.931   2.565
 5960SOL     OW18535   4.410   3.023   3.665
 5960SOL    HW118536   4.470   3.102   3.679
 5960SOL    HW218537   4.324   3.054   3.624
 5961SOL     OW18538   4.059   3.297   2.923
 5961SOL    HW118539   3.981   3.266   2.870
 5961SOL    HW218540   4.117   3.355   2.866
 5962SOL     OW18541   5.184   3.367   3.201
 5962SOL    HW118542   5.208   3.461   3.227
 5962SOL    HW218543   5.168   3.313   3.283
 5963SOL     OW18544   4.162   2.254   3.361
 5963SOL    HW118545   4.244   2.198   3.370
 5963SOL    HW218546   4.081   2.196   3.365
 5964SOL     OW18547   3.955   3.575   2.345
 5964SOL    HW118548   3.989   3.652   2.399
 5964SOL    HW218549   3.999   3.575   2.255
 5965SOL     OW18550   4.851   3.203   3.552
 5965SOL    HW118551   4.898   3.203   3.640
 5965SOL    HW218552   4.803   3.116   3.541
 5966SOL     OW18553   3.954   3.296   2.400
 5966SOL    HW118554   3.928   3.392   2.400
 5966SOL    HW218555   3.883   3.242   2.445
 5967SOL     OW18556   3.964   2.953   2.748
 5967SOL    HW118557   3.978   2.869   2.800
 5967SOL    HW218558   3.909   3.017   2.803
 5968SOL     OW18559   4.344   3.648   3.301
 5968SOL    HW118560   4.252   3.631   3.336
 5968SOL    HW218561   4.372   3.740   3.327
 5969SOL     OW18562   4.330   2.826   1.985
 5969SOL    HW118563   4.337   2.910   1.931
 5969SOL    HW218564   4.376   2.839   2.073
 5970SOL     OW18565   3.846   2.505   2.425
 5970SOL    HW118566   3.801   2.417   2.442
 5970SOL    HW218567   3.845   2.559   2.509
 5971SOL     OW18568   3.751   3.458   1.979
 5971SOL    HW118569   3.732   3.362   2.000
 5971SOL    HW218570   3.718   3.516   2.054
 5972SOL     OW18571   5.413   2.784   2.474
 5972SOL    HW118572   5.508   2.755   2.482
 5972SOL    HW218573   5.405   2.849   2.399
 5973SOL     OW18574   3.837   2.599   3.459
 5973SOL    HW118575   3.925   2.586   3.504
 5973SOL    HW218576   3.824   2.696   3.437
 5974SOL     OW18577   4.337   3.227   2.588
 5974SOL    HW118578   4.288   3.140   2.597
 5974SOL    HW218579   4.314   3.270   2.501
 5975SOL     OW18580   5.017   3.090   3.285
 5975SOL    HW118581   5.054   3.017   3.227
 5975SOL    HW218582   5.069   3.095   3.370
 5976SOL     OW18583   4.533   1.866   2.364
 5976SOL    HW118584   4.573   1.957   2.355
 5976SOL    HW218585   4.433   1.874   2.370
 5977SOL     OW18586   3.921   2.838   3.126
 5977SOL    HW118587   4.010   2.793   3.112
 5977SOL    HW218588   3.848   2.773   3.107
 5978SOL     OW18589   4.911   3.654   3.478
 5978SOL    HW118590   4.935   3.714   3.402
 5978SOL    HW218591   4.918   3.559   3.448
 5979SOL     OW18592   4.041   2.113   3.663
 5979SOL    HW118593   4.112   2.184   3.669
 5979SOL    HW218594   3.953   2.152   3.691
 5980SOL     OW18595   5.190   3.279   2.815
 5980SOL    HW118596   5.131   3.285   2.895
 5980SOL    HW218597   5.175   3.191   2.769
 5981SOL     OW18598   4.322   2.591   2.132
 5981SOL    HW118599   4.346   2.660   2.064
 5981SOL    HW218600   4.244   2.624   2.186
 5982SOL     OW18601   5.005   2.207   2.806
 5982SOL    HW118602   4.919   2.157   2.793
 5982SOL    HW218603   5.067   2.153   2.862
 5983SOL     OW18604   4.531   2.467   3.327
 5983SOL    HW118605   4.484   2.464   3.416
 5983SOL    HW218606   4.480   2.412   3.261
 5984SOL     OW18607   5.118   2.331   3.536
 5984SOL    HW118608   5.098   2.374   3.624
 5984SOL    HW218609   5.196   2.269   3.545
 5985SOL     OW18610   4.697   2.752   3.434
 5985SOL    HW118611   4.743   2.668   3.405
 5985SOL    HW218612   4.641   2.786   3.359
 5986SOL     OW18613   4.715   2.272   3.104
 5986SOL    HW118614   4.638   2.306   3.158
 5986SOL    HW218615   4.681   2.221   3.025
 5987SOL     OW18616   4.765   2.563   2.291
 5987SOL    HW118617   4.791   2.559   2.387
 5987SOL    HW218618   4.680   2.512   2.277
 5988SOL     OW18619   3.800   2.673   2.651
 5988SOL    HW118620   3.899   2.661   2.660
 5988SOL    HW218621   3.776   2.768   2.672
 5989SOL     OW18622   3.854   3.683   3.433
 5989SOL    HW118623   3.844   3.668   3.532
 5989SOL    HW218624   3.768   3.719   3.397
 5990SOL     OW18625   4.589   2.210   2.057
 5990SOL    HW118626   4.648   2.273   2.008
 5990SOL    HW218627   4.608   2.116   2.028
 5991SOL     OW18628   5.086   3.006   2.407
 5991SOL    HW118629   5.169   2.977   2.359
 5991SOL    HW218630   5.037   3.073   2.351
 5992SOL     OW18631   4.274   2.058   2.747
 5992SOL    HW118632   4.269   2.053   2.847
 5992SOL    HW218633   4.276   2.154   2.718
 5993SOL     OW18634   4.732   3.318   2.339
 5993SOL    HW118635   4.686   3.390   2.287
 5993SOL    HW218636   4.728   3.338   2.437
 5994SOL     OW18637   4.075   3.663   2.715
 5994SOL    HW118638   4.125   3.577   2.721
 5994SOL    HW218639   4.140   3.740   2.712
 5995SOL     OW18640   4.951   3.412   3.368
 5995SOL    HW118641   4.957   3.335   3.432
 5995SOL    HW218642   4.899   3.386   3.288
 5996SOL     OW18643   4.045   2.805   2.104
 5996SOL    HW118644   4.127   2.844   2.062
 5996SOL    HW218645   4.018   2.723   2.055
 5997SOL     OW18646   4.185   3.128   3.589
 5997SOL    HW118647   4.135   3.129   3.503
 5997SOL    HW218648   4.122   3.110   3.665
 5998SOL     OW18649   4.835   3.638   2.099
 5998SOL    HW118650   4.775   3.576   2.149
 5998SOL    HW218651   4.866   3.594   2.014
 5999SOL     OW18652   3.926   2.147   3.360
 5999SOL    HW118653   3.846   2.207   3.347
 5999SOL    HW218654   3.916   2.098   3.446
 6000SOL     OW18655   4.188   3.605   2.185
 6000SOL    HW118656   4.221   3.644   2.271
 6000SOL    HW218657   4.264   3.598   2.120
 6001SOL     OW18658   5.124   1.969   2.288
 6001SOL    HW118659   5.100   1.932   2.198
 6001SOL    HW218660   5.223   1.985   2.292
 6002SOL     OW18661   3.973   3.647   3.103
 6002SOL    HW118662   4.030   3.582   3.153
 6002SOL    HW218663   3.957   3.614   3.010
 6003SOL     OW18664   4.664   3.560   2.766
 6003SOL    HW118665   4.744   3.503   2.787
 6003SOL    HW218666   4.615   3.520   2.689
 6004SOL     OW18667   4.106   2.562   2.342
 6004SOL    HW118668   4.151   2.472   2.339
 6004SOL    HW218669   4.012   2.551   2.375
 6005SOL     OW18670   4.338   1.984   1.979
 6005SOL    HW118671   4.436   1.962   1.986
 6005SOL    HW218672   4.307   1.967   1.886
 6006SOL     OW18673   4.505   2.126   3.611
 6006SOL    HW118674   4.572   2.065   3.654
 6006SOL    HW218675   4.432   2.145   3.676
 6007SOL     OW18676   4.612   3.376   3.057
 6007SOL    HW118677   4.589   3.351   2.963
 6007SOL    HW218678   4.673   3.307   3.096
 6008SOL     OW18679   5.075   2.452   3.295
 6008SOL    HW118680   5.103   2.409   3.380
 6008SOL    HW218681   5.100   2.548   3.296
 6009SOL     OW18682   4.527   3.264   2.786
 6009SOL    HW118683   4.617   3.278   2.744
 6009SOL    HW218684   4.456   3.266   2.715
 6010SOL     OW18685   4.646   2.365   2.761
 6010SOL    HW118686   4.621   2.356   2.665
 6010SOL    HW218687   4.694   2.283   2.792
 6011SOL     OW18688   4.263   1.926   2.374
 6011SOL    HW118689   4.182   1.927   2.432
 6011SOL    HW218690   4.266   2.009   2.319
 6012SOL     OW18691   5.158   3.050   1.903
 6012SOL    HW118692   5.190   2.974   1.960
 6012SOL    HW218693   5.066   3.077   1.933
 6013SOL     OW18694   4.021   1.897   2.033
 6013SOL    HW118695   4.070   1.981   2.012
 6013SOL    HW218696   4.083   1.832   2.078
 6014SOL     OW18697   4.659   2.098   2.342
 6014SOL    HW118698   4.611   2.139   2.264
 6014SOL    HW218699   4.758   2.096   2.323
 6015SOL     OW18700   4.800   2.545   3.326
 6015SOL    HW118701   4.720   2.484   3.329
 6015SOL    HW218702   4.881   2.492   3.302
 6016SOL     OW18703   4.951   3.432   2.655
 6016SOL    HW118704   4.972   3.506   2.590
 6016SOL    HW218705   5.019   3.432   2.728
 6017SOL     OW18706   4.183   3.014   2.603
 6017SOL    HW118707   4.112   2.987   2.668
 6017SOL    HW218708   4.157   2.986   2.510
 6018SOL     OW18709   4.995   3.659   2.453
 6018SOL    HW118710   5.039   3.723   2.389
 6018SOL    HW218711   4.945   3.711   2.523
 6019SOL     OW18712   4.756   2.411   1.878
 6019SOL    HW118713   4.715   2.493   1.839
 6019SOL    HW218714   4.820   2.437   1.951
 6020SOL     OW18715   3.802   2.418   3.248
 6020SOL    HW118716   3.894   2.417   3.207
 6020SOL    HW218717   3.796   2.492   3.315
 6021SOL     OW18718   4.285   2.084   3.009
 6021SOL    HW118719   4.323   2.000   3.046
 6021SOL    HW218720   4.197   2.103   3.053
 6022SOL     OW18721   4.590   2.316   2.504
 6022SOL    HW118722   4.558   2.388   2.442
 6022SOL    HW218723   4.614   2.235   2.451
 6023SOL     OW18724   4.741   1.901   2.615
 6023SOL    HW118725   4.669   1.906   2.546
 6023SOL    HW218726   4.717   1.832   2.684
 6024SOL     OW18727   5.153   3.035   2.729
 6024SOL    HW118728   5.098   2.951   2.722
 6024SOL    HW218729   5.179   3.064   2.637
 6025SOL     OW18730   4.212   3.247   2.036
 6025SOL    HW118731   4.125   3.232   2.083
 6025SOL    HW218732   4.195   3.273   1.941
 6026SOL     OW18733   5.114   2.437   1.940
 6026SOL    HW118734   5.060   2.416   2.021
 6026SOL    HW218735   5.205   2.396   1.949
 6027SOL     OW18736   4.251   2.118   2.190
 6027SOL    HW118737   4.278   2.059   2.115
 6027SOL    HW218738   4.251   2.213   2.159
 6028SOL     OW18739   4.788   3.209   3.202
 6028SOL    HW118740   4.708   3.186   3.257
 6028SOL    HW218741   4.871   3.183   3.251
 6029SOL     OW18742   5.316   3.491   3.487
 6029SOL    HW118743   5.343   3.525   3.397
 6029SOL    HW218744   5.395   3.453   3.533
 6030SOL     OW18745   4.835   3.057   2.962
 6030SOL    HW118746   4.795   3.101   3.043
 6030SOL    HW218747   4.794   3.094   2.879
 6031SOL     OW18748   4.639   1.951   3.264
 6031SOL    HW118749   4.664   1.931   3.169
 6031SOL    HW218750   4.711   2.007   3.306
 6032SOL     OW18751   4.704   2.978   3.581
 6032SOL    HW118752   4.605   2.984   3.591
 6032SOL    HW218753   4.727   2.898   3.525
 6033SOL     OW18754   4.429   2.912   2.230
 6033SOL    HW118755   4.415   2.919   2.329
 6033SOL    HW218756   4.513   2.861   2.212
 6034SOL     OW18757   4.134   2.675   3.113
 6034SOL    HW118758   4.220   2.687   3.163
 6034SOL    HW218759   4.092   2.588   3.140
 6035SOL     OW18760   4.998   2.248   3.124
 6035SOL    HW118761   5.019   2.322   3.188
 6035SOL    HW218762   4.909   2.265   3.081
 6036SOL     OW18763   3.788   3.426   3.193
 6036SOL    HW118764   3.742   3.508   3.159
 6036SOL    HW218765   3.886   3.445   3.202
 6037SOL     OW18766   4.091   2.962   2.363
 6037SOL    HW118767   4.084   3.045   2.307
 6037SOL    HW218768   4.095   2.882   2.303
 6038SOL     OW18769   4.290   2.399   2.727
 6038SOL    HW118770   4.302   2.465   2.653
 6038SOL    HW218771   4.336   2.433   2.810
 6039SOL     OW18772   4.976   3.210   2.250
 6039SOL    HW118773   5.026   3.287   2.290
 6039SOL    HW218774   4.881   3.212   2.282
 6040SOL     OW18775   4.996   3.307   3.004
 6040SOL    HW118776   5.043   3.320   3.091
 6040SOL    HW218777   4.930   3.233   3.013
 6041SOL     OW18778   4.078   3.372   3.191
 6041SOL    HW118779   4.057   3.328   3.104
 6041SOL    HW218780   4.175   3.398   3.194
 6042SOL     OW18781   4.126   2.613   3.460
 6042SOL    HW118782   4.194   2.668   3.413
 6042SOL    HW218783   4.166   2.525   3.487
 6043SOL     OW18784   4.737   1.967   3.632
 6043SOL    HW118785   4.743   2.052   3.580
 6043SOL    HW218786   4.769   1.891   3.575
 6044SOL     OW18787   4.228   1.912   3.602
 6044SOL    HW118788   4.186   1.855   3.532
 6044SOL    HW218789   4.162   1.981   3.634
 6045SOL     OW18790   4.297   2.732   2.891
 6045SOL    HW118791   4.341   2.821   2.882
 6045SOL    HW218792   4.234   2.732   2.968
 6046SOL     OW18793   5.084   2.724   2.907
 6046SOL    HW118794   5.009   2.724   2.841
 6046SOL    HW218795   5.121   2.632   2.916
 6047SOL     OW18796   4.933   2.387   2.137
 6047SOL    HW118797   4.946   2.303   2.191
 6047SOL    HW218798   4.904   2.461   2.197
 6048SOL     OW18799   4.031   2.075   3.093
 6048SOL    HW118800   4.008   2.112   3.183
 6048SOL    HW218801   4.001   1.980   3.087
 6049SOL     OW18802   3.761   3.172   3.144
 6049SOL    HW118803   3.814   3.123   3.212
 6049SOL    HW218804   3.783   3.270   3.149
 6050SOL     OW18805   4.456   2.496   2.926
 6050SOL    HW118806   4.515   2.470   2.850
 6050SOL    HW218807   4.428   2.592   2.915
 6051SOL     OW18808   4.031   1.925   2.480
 6051SOL    HW118809   4.020   2.019   2.513
 6051SOL    HW218810   4.026   1.862   2.557
 6052SOL     OW18811   5.346   2.229   2.236
 6052SOL    HW118812   5.348   2.153   2.300
 6052SOL    HW218813   5.298   2.306   2.276
 6053SOL     OW18814   4.747   2.628   2.828
 6053SOL    HW118815   4.762   2.649   2.924
 6053SOL    HW218816   4.717   2.533   2.819
 6054SOL     OW18817   4.704   3.435   3.562
 6054SOL    HW118818   4.684   3.479   3.474
 6054SOL    HW218819   4.743   3.344   3.546
 6055SOL     OW18820   4.074   2.760   3.666
 6055SOL    HW118821   4.150   2.804   3.714
 6055SOL    HW218822   4.109   2.713   3.584
 6056SOL     OW18823   5.027   2.700   1.904
 6056SOL    HW118824   5.061   2.607   1.919
 6056SOL    HW218825   5.045   2.727   1.809
 6057SOL     OW18826   4.792   3.195   2.711
 6057SOL    HW118827   4.799   3.111   2.656
 6057SOL    HW218828   4.854   3.264   2.675
 6058SOL     OW18829   4.043   2.672   2.811
 6058SOL    HW118830   4.136   2.708   2.816
 6058SOL    HW218831   4.037   2.587   2.863
 6059SOL     OW18832   4.063   2.371   2.868
 6059SOL    HW118833   4.011   2.288   2.851
 6059SOL    HW218834   4.140   2.376   2.804
 6060SOL     OW18835   4.862   2.242   3.540
 6060SOL    HW118836   4.817   2.305   3.604
 6060SOL    HW218837   4.955   2.273   3.523
 6061SOL     OW18838   4.884   2.069   3.339
 6061SOL    HW118839   4.884   2.133   3.416
 6061SOL    HW218840   4.912   2.117   3.256
 6062SOL     OW18841   3.732   3.188   2.062
 6062SOL    HW118842   3.639   3.209   2.031
 6062SOL    HW218843   3.742   3.089   2.075
 6063SOL     OW18844   3.812   3.663   2.789
 6063SOL    HW118845   3.770   3.577   2.762
 6063SOL    HW218846   3.906   3.666   2.755
 6064SOL     OW18847   4.228   3.430   2.772
 6064SOL    HW118848   4.294   3.504   2.781
 6064SOL    HW218849   4.272   3.351   2.730
 6065SOL     OW18850   4.726   2.658   3.100
 6065SOL    HW118851   4.767   2.626   3.186
 6065SOL    HW218852   4.630   2.631   3.097
 6066SOL     OW18853   3.764   2.406   2.976
 6066SOL    HW118854   3.849   2.373   2.935
 6066SOL    HW218855   3.777   2.421   3.074
 6067SOL     OW18856   3.913   2.382   3.584
 6067SOL    HW118857   3.972   2.342   3.514
 6067SOL    HW218858   3.855   2.453   3.543
 6068SOL     OW18859   5.093   2.812   3.522
 6068SOL    HW118860   5.132   2.901   3.542
 6068SOL    HW218861   5.103   2.792   3.425
 6069SOL     OW18862   4.539   2.434   2.187
 6069SOL    HW118863   4.546   2.345   2.141
 6069SOL    HW218864   4.445   2.468   2.179
 6070SOL     OW18865   3.976   3.426   3.606
 6070SOL    HW118866   3.946   3.483   3.682
 6070SOL    HW218867   3.969   3.329   3.632
 6071SOL     OW18868   4.395   2.326   3.131
 6071SOL    HW118869   4.361   2.237   3.101
 6071SOL    HW218870   4.421   2.380   3.051
 6072SOL     OW18871   4.654   3.540   3.327
 6072SOL    HW118872   4.630   3.522   3.232
 6072SOL    HW218873   4.684   3.634   3.337
 6073SOL     OW18874   4.197   2.362   2.053
 6073SOL    HW118875   4.258   2.442   2.057
 6073SOL    HW218876   4.102   2.393   2.060
 6074SOL     OW18877   3.883   2.999   3.328
 6074SOL    HW118878   3.905   2.938   3.404
 6074SOL    HW218879   3.893   2.950   3.242
 6075SOL     OW18880   5.071   2.921   3.096
 6075SOL    HW118881   5.095   2.858   3.022
 6075SOL    HW218882   4.981   2.961   3.078
 6076SOL     OW18883   5.026   2.717   2.171
 6076SOL    HW118884   4.940   2.686   2.213
 6076SOL    HW218885   5.022   2.703   2.072
 6077SOL     OW18886   4.976   3.593   2.990
 6077SOL    HW118887   5.060   3.598   2.936
 6077SOL    HW218888   4.953   3.497   3.008
 6078SOL     OW18889   3.807   3.120   2.884
 6078SOL    HW118890   3.802   3.119   2.984
 6078SOL    HW218891   3.724   3.079   2.846
 6079SOL     OW18892   4.412   3.524   3.578
 6079SOL    HW118893   4.356   3.605   3.587
 6079SOL    HW218894   4.464   3.528   3.492
 6080SOL     OW18895   5.450   1.997   2.385
 6080SOL    HW118896   5.523   1.980   2.318
 6080SOL    HW218897   5.419   1.910   2.423
 6081SOL     OW18898   5.112   3.435   2.339
 6081SOL    HW118899   5.179   3.447   2.265
 6081SOL    HW218900   5.072   3.524   2.362
 6082SOL     OW18901   3.854   3.656   3.713
 6082SOL    HW118902   3.813   3.582   3.766
 6082SOL    HW218903   3.918   3.707   3.771
 6083SOL     OW18904   5.004   2.789   2.534
 6083SOL    HW118905   5.064   2.708   2.536
 6083SOL    HW218906   5.044   2.858   2.474
 6084SOL     OW18907   4.554   3.135   3.284
 6084SOL    HW118908   4.549   3.168   3.379
 6084SOL    HW218909   4.468   3.154   3.238
 6085SOL     OW18910   4.396   3.478   2.016
 6085SOL    HW118911   4.405   3.488   1.917
 6085SOL    HW218912   4.356   3.389   2.037
 6086SOL     OW18913   3.987   2.188   2.582
 6086SOL    HW118914   3.908   2.239   2.548
 6086SOL    HW218915   3.978   2.173   2.680
 6087SOL     OW18916   4.918   3.474   1.893
 6087SOL    HW118917   4.924   3.381   1.930
 6087SOL    HW218918   4.859   3.474   1.813
 6088SOL     OW18919   4.546   2.864   3.234
 6088SOL    HW118920   4.586   2.863   3.142
 6088SOL    HW218921   4.556   2.956   3.274
 6089SOL     OW18922   4.640   2.772   2.153
 6089SOL    HW118923   4.703   2.810   2.085
 6089SOL    HW218924   4.680   2.689   2.192
 6090SOL     OW18925   4.096   3.150   3.352
 6090SOL    HW118926   4.083   3.243   3.318
 6090SOL    HW218927   4.012   3.098   3.339
 6091SOL     OW18928   4.763   2.960   2.558
 6091SOL    HW118929   4.693   2.913   2.612
 6091SOL    HW218930   4.822   2.892   2.515
 6092SOL     OW18931   4.738   2.098   2.833
 6092SOL    HW118932   4.730   2.062   2.740
 6092SOL    HW218933   4.736   2.022   2.898
 6093SOL     OW18934   4.314   3.349   2.353
 6093SOL    HW118935   4.356   3.291   2.283
 6093SOL    HW218936   4.270   3.428   2.309
 6094SOL     OW18937   3.979   3.210   2.152
 6094SOL    HW118938   3.883   3.211   2.125
 6094SOL    HW218939   3.991   3.263   2.236
 6095SOL     OW18940   3.829   2.875   3.588
 6095SOL    HW118941   3.752   2.842   3.642
 6095SOL    HW218942   3.914   2.845   3.630
 6096SOL     OW18943   4.396   2.065   3.351
 6096SOL    HW118944   4.486   2.049   3.311
 6096SOL    HW218945   4.404   2.070   3.450
 6097SOL     OW18946   3.799   2.207   1.895
 6097SOL    HW118947   3.707   2.179   1.866
 6097SOL    HW218948   3.830   2.284   1.839
 6098SOL     OW18949   5.164   2.718   3.260
 6098SOL    HW118950   5.107   2.770   3.197
 6098SOL    HW218951   5.260   2.730   3.236
 6099SOL     OW18952   3.796   2.028   2.180
 6099SOL    HW118953   3.779   2.111   2.126
 6099SOL    HW218954   3.886   1.991   2.158
 6100SOL     OW18955   4.907   3.197   1.981
 6100SOL    HW118956   4.808   3.186   1.983
 6100SOL    HW218957   4.941   3.212   2.074
 6101SOL     OW18958   4.337   2.704   3.293
 6101SOL    HW118959   4.393   2.785   3.276
 6101SOL    HW218960   4.396   2.624   3.296
 6102SOL     OW18961   4.440   2.427   3.570
 6102SOL    HW118962   4.459   2.492   3.644
 6102SOL    HW218963   4.500   2.347   3.579
 6103SOL     OW18964   5.174   3.082   3.495
 6103SOL    HW118965   5.165   3.072   3.594
 6103SOL    HW218966   5.270   3.075   3.469
 6104SOL     OW18967   4.114   3.603   3.422
 6104SOL    HW118968   4.023   3.644   3.420
 6104SOL    HW218969   4.107   3.509   3.454
 6105SOL     OW18970   4.949   2.187   2.311
 6105SOL    HW118971   5.014   2.113   2.300
 6105SOL    HW218972   4.969   2.237   2.395
 6106SOL     OW18973   4.318   2.607   2.514
 6106SOL    HW118974   4.368   2.692   2.495
 6106SOL    HW218975   4.230   2.609   2.466
 6107SOL     OW18976   4.583   3.236   1.878
 6107SOL    HW118977   4.537   3.251   1.966
 6107SOL    HW218978   4.627   3.321   1.848
 6108SOL     OW18979   4.385   3.652   2.815
 6108SOL    HW118980   4.339   3.740   2.802
 6108SOL    HW218981   4.484   3.664   2.808
 6109SOL     OW18982   4.583   2.818   2.723
 6109SOL    HW118983   4.637   2.749   2.771
 6109SOL    HW218984   4.551   2.887   2.789
 6110SOL     OW18985   4.807   2.846   1.949
 6110SOL    HW118986   4.784   2.899   1.867
 6110SOL    HW218987   4.888   2.790   1.930
 6111SOL     OW18988   3.945   3.176   3.706
 6111SOL    HW118989   3.880   3.103   3.685
 6111SOL    HW218990   3.949   3.190   3.804
 6112SOL     OW18991   3.803   3.102   2.515
 6112SOL    HW118992   3.802   3.055   2.603
 6112SOL    HW218993   3.885   3.074   2.464
 6113SOL     OW18994   4.396   3.253   3.486
 6113SOL    HW118995   4.318   3.203   3.524
 6113SOL    HW218996   4.393   3.348   3.517
 6114SOL     OW18997   4.152   2.286   2.382
 6114SOL    HW118998   4.182   2.214   2.320
 6114SOL    HW218999   4.113   2.246   2.465
 6115SOL     OW19000   5.429   3.349   2.966
 6115SOL    HW119001   5.336   3.324   2.939
 6115SOL    HW219002   5.455   3.299   3.048
 6116SOL     OW19003   4.041   2.409   3.142
 6116SOL    HW119004   4.079   2.350   3.214
 6116SOL    HW219005   4.081   2.383   3.054
 6117SOL     OW19006   4.536   3.448   2.549
 6117SOL    HW119007   4.568   3.458   2.455
 6117SOL    HW219008   4.457   3.386   2.551
 6118SOL     OW19009   5.148   2.076   2.974
 6118SOL    HW119010   5.200   2.011   3.029
 6118SOL    HW219011   5.099   2.139   3.035
 6119SOL     OW19012   4.725   1.896   3.016
 6119SOL    HW119013   4.662   1.824   2.985
 6119SOL    HW219014   4.818   1.860   3.016
 6120SOL     OW19015   4.494   3.192   2.163
 6120SOL    HW119016   4.448   3.105   2.180
 6120SOL    HW219017   4.585   3.189   2.204
 6121SOL     OW19018   4.342   3.429   3.146
 6121SOL    HW119019   4.337   3.511   3.203
 6121SOL    HW219020   4.431   3.426   3.101
 6122SOL     OW19021   5.076   1.914   2.030
 6122SOL    HW119022   5.111   1.873   1.946
 6122SOL    HW219023   4.986   1.876   2.050
 6123SOL     OW19024   5.024   2.315   2.553
 6123SOL    HW119025   4.965   2.395   2.557
 6123SOL    HW219026   5.039   2.280   2.646
 6124SOL     OW19027   5.317   2.083   2.744
 6124SOL    HW119028   5.233   2.082   2.798
 6124SOL    HW219029   5.319   2.166   2.688
 6125SOL     OW19030   3.763   2.939   2.162
 6125SOL    HW119031   3.862   2.928   2.153
 6125SOL    HW219032   3.723   2.853   2.194
 6126SOL     OW19033   4.599   3.508   2.199
 6126SOL    HW119034   4.522   3.473   2.145
 6126SOL    HW219035   4.567   3.579   2.261
 6127SOL     OW19036   3.954   2.490   3.837
 6127SOL    HW119037   3.861   2.488   3.874
 6127SOL    HW219038   3.955   2.451   3.745
 6128SOL     OW19039   3.949   2.137   4.720
 6128SOL    HW119040   3.984   2.120   4.812
 6128SOL    HW219041   3.861   2.092   4.708
 6129SOL     OW19042   3.743   2.230   4.371
 6129SOL    HW119043   3.661   2.273   4.410
 6129SOL    HW219044   3.715   2.157   4.308
 6130SOL     OW19045   4.293   3.137   4.889
 6130SOL    HW119046   4.200   3.130   4.852
 6130SOL    HW219047   4.304   3.226   4.933
 6131SOL     OW19048   5.279   3.373   4.427
 6131SOL    HW119049   5.222   3.357   4.508
 6131SOL    HW219050   5.220   3.383   4.347
 6132SOL     OW19051   4.859   2.565   4.441
 6132SOL    HW119052   4.916   2.643   4.416
 6132SOL    HW219053   4.799   2.591   4.517
 6133SOL     OW19054   4.492   3.006   4.747
 6133SOL    HW119055   4.414   3.023   4.807
 6133SOL    HW219056   4.526   3.093   4.711
 6134SOL     OW19057   4.574   2.660   5.547
 6134SOL    HW119058   4.570   2.736   5.612
 6134SOL    HW219059   4.596   2.696   5.456
 6135SOL     OW19060   4.409   2.874   4.389
 6135SOL    HW119061   4.478   2.858   4.459
 6135SOL    HW219062   4.336   2.931   4.427
 6136SOL     OW19063   4.410   3.023   5.527
 6136SOL    HW119064   4.470   3.102   5.541
 6136SOL    HW219065   4.324   3.054   5.486
 6137SOL     OW19066   4.059   3.297   4.785
 6137SOL    HW119067   3.981   3.266   4.732
 6137SOL    HW219068   4.117   3.355   4.728
 6138SOL     OW19069   5.184   3.367   5.063
 6138SOL    HW119070   5.208   3.461   5.089
 6138SOL    HW219071   5.168   3.313   5.145
 6139SOL     OW19072   4.162   2.254   5.223
 6139SOL    HW119073   4.244   2.198   5.232
 6139SOL    HW219074   4.081   2.196   5.227
 6140SOL     OW19075   3.955   3.575   4.207
 6140SOL    HW119076   3.989   3.652   4.261
 6140SOL    HW219077   3.999   3.575   4.117
 6141SOL     OW19078   4.851   3.203   5.414
 6141SOL    HW119079   4.898   3.203   5.502
 6141SOL    HW219080   4.803   3.116   5.403
 6142SOL     OW19081   3.954   3.296   4.262
 6142SOL    HW119082   3.928   3.392   4.262
 6142SOL    HW219083   3.883   3.242   4.307
 6143SOL     OW19084   3.964   2.953   4.610
 6143SOL    HW119085   3.978   2.869   4.662
 6143SOL    HW219086   3.909   3.017   4.665
 6144SOL     OW19087   4.344   3.648   5.163
 6144SOL    HW119088   4.252   3.631   5.198
 6144SOL    HW219089   4.372   3.740   5.189
 6145SOL     OW19090   4.330   2.826   3.847
 6145SOL    HW119091   4.337   2.910   3.793
 6145SOL    HW219092   4.376   2.839   3.935
 6146SOL     OW19093   3.846   2.505   4.287
 6146SOL    HW119094   3.801   2.417   4.304
 6146SOL    HW219095   3.845   2.559   4.371
 6147SOL     OW19096   3.751   3.458   3.841
 6147SOL    HW119097   3.732   3.362   3.862
 6147SOL    HW219098   3.718   3.516   3.916
 6148SOL     OW19099   5.413   2.784   4.336
 6148SOL    HW119100   5.508   2.755   4.344
 6148SOL    HW219101   5.405   2.849   4.261
 6149SOL     OW19102   3.837   2.599   5.321
 6149SOL    HW119103   3.925   2.586   5.366
 6149SOL    HW219104   3.824   2.696   5.299
 6150SOL     OW19105   4.337   3.227   4.450
 6150SOL    HW119106   4.288   3.140   4.459
 6150SOL    HW219107   4.314   3.270   4.363
 6151SOL     OW19108   5.017   3.090   5.147
 6151SOL    HW119109   5.054   3.017   5.089
 6151SOL    HW219110   5.069   3.095   5.232
 6152SOL     OW19111   4.533   1.866   4.226
 6152SOL    HW119112   4.573   1.957   4.217
 6152SOL    HW219113   4.433   1.874   4.232
 6153SOL     OW19114   3.921   2.838   4.988
 6153SOL    HW119115   4.010   2.793   4.974
 6153SOL    HW219116   3.848   2.773   4.969
 6154SOL     OW19117   4.911   3.654   5.340
 6154SOL    HW119118   4.935   3.714   5.264
 6154SOL    HW219119   4.918   3.559   5.310
 6155SOL     OW19120   4.041   2.113   5.525
 6155SOL    HW119121   4.112   2.184   5.531
 6155SOL    HW219122   3.953   2.152   5.553
 6156SOL     OW19123   5.190   3.279   4.677
 6156SOL    HW119124   5.131   3.285   4.757
 6156SOL    HW219125   5.175   3.191   4.631
 6157SOL     OW19126   4.322   2.591   3.994
 6157SOL    HW119127   4.346   2.660   3.926
 6157SOL    HW219128   4.244   2.624   4.048
 6158SOL     OW19129   5.005   2.207   4.668
 6158SOL    HW119130   4.919   2.157   4.655
 6158SOL    HW219131   5.067   2.153   4.724
 6159SOL     OW19132   4.531   2.467   5.189
 6159SOL    HW119133   4.484   2.464   5.278
 6159SOL    HW219134   4.480   2.412   5.123
 6160SOL     OW19135   5.118   2.331   5.398
 6160SOL    HW119136   5.098   2.374   5.486
 6160SOL    HW219137   5.196   2.269   5.407
 6161SOL     OW19138   4.697   2.752   5.296
 6161SOL    HW119139   4.743   2.668   5.267
 6161SOL    HW219140   4.641   2.786   5.221
 6162SOL     OW19141   4.715   2.272   4.966
 6162SOL    HW119142   4.638   2.306   5.020
 6162SOL    HW219143   4.681   2.221   4.887
 6163SOL     OW19144   4.765   2.563   4.153
 6163SOL    HW119145   4.791   2.559   4.249
 6163SOL    HW219146   4.680   2.512   4.139
 6164SOL     OW19147   3.800   2.673   4.513
 6164SOL    HW119148   3.899   2.661   4.522
 6164SOL    HW219149   3.776   2.768   4.534
 6165SOL     OW19150   3.854   3.683   5.295
 6165SOL    HW119151   3.844   3.668   5.394
 6165SOL    HW219152   3.768   3.719   5.259
 6166SOL     OW19153   4.589   2.210   3.919
 6166SOL    HW119154   4.648   2.273   3.870
 6166SOL    HW219155   4.608   2.116   3.890
 6167SOL     OW19156   5.086   3.006   4.269
 6167SOL    HW119157   5.169   2.977   4.221
 6167SOL    HW219158   5.037   3.073   4.213
 6168SOL     OW19159   4.274   2.058   4.609
 6168SOL    HW119160   4.269   2.053   4.709
 6168SOL    HW219161   4.276   2.154   4.580
 6169SOL     OW19162   4.732   3.318   4.201
 6169SOL    HW119163   4.686   3.390   4.149
 6169SOL    HW219164   4.728   3.338   4.299
 6170SOL     OW19165   4.075   3.663   4.577
 6170SOL    HW119166   4.125   3.577   4.583
 6170SOL    HW219167   4.140   3.740   4.574
 6171SOL     OW19168   4.951   3.412   5.230
 6171SOL    HW119169   4.957   3.335   5.294
 6171SOL    HW219170   4.899   3.386   5.150
 6172SOL     OW19171   4.045   2.805   3.966
 6172SOL    HW119172   4.127   2.844   3.924
 6172SOL    HW219173   4.018   2.723   3.917
 6173SOL     OW19174   4.185   3.128   5.451
 6173SOL    HW119175   4.135   3.129   5.365
 6173SOL    HW219176   4.122   3.110   5.527
 6174SOL     OW19177   4.835   3.638   3.961
 6174SOL    HW119178   4.775   3.576   4.011
 6174SOL    HW219179   4.866   3.594   3.876
 6175SOL     OW19180   3.926   2.147   5.222
 6175SOL    HW119181   3.846   2.207   5.209
 6175SOL    HW219182   3.916   2.098   5.308
 6176SOL     OW19183   4.188   3.605   4.047
 6176SOL    HW119184   4.221   3.644   4.133
 6176SOL    HW219185   4.264   3.598   3.982
 6177SOL     OW19186   5.124   1.969   4.150
 6177SOL    HW119187   5.100   1.932   4.060
 6177SOL    HW219188   5.223   1.985   4.154
 6178SOL     OW19189   3.973   3.647   4.965
 6178SOL    HW119190   4.030   3.582   5.015
 6178SOL    HW219191   3.957   3.614   4.872
 6179SOL     OW19192   4.664   3.560   4.628
 6179SOL    HW119193   4.744   3.503   4.649
 6179SOL    HW219194   4.615   3.520   4.551
 6180SOL     OW19195   4.106   2.562   4.204
 6180SOL    HW119196   4.151   2.472   4.201
 6180SOL    HW219197   4.012   2.551   4.237
 6181SOL     OW19198   4.338   1.984   3.841
 6181SOL    HW119199   4.436   1.962   3.848
 6181SOL    HW219200   4.307   1.967   3.748
 6182SOL     OW19201   4.505   2.126   5.473
 6182SOL    HW119202   4.572   2.065   5.516
 6182SOL    HW219203   4.432   2.145   5.538
 6183SOL     OW19204   4.612   3.376   4.919
 6183SOL    HW119205   4.589   3.351   4.825
 6183SOL    HW219206   4.673   3.307   4.958
 6184SOL     OW19207   5.075   2.452   5.157
 6184SOL    HW119208   5.103   2.409   5.242
 6184SOL    HW219209   5.100   2.548   5.158
 6185SOL     OW19210   4.527   3.264   4.648
 6185SOL    HW119211   4.617   3.278   4.606
 6185SOL    HW219212   4.456   3.266   4.577
 6186SOL     OW19213   4.646   2.365   4.623
 6186SOL    HW119214   4.621   2.356   4.527
 6186SOL    HW219215   4.694   2.283   4.654
 6187SOL     OW19216   4.263   1.926   4.236
 6187SOL    HW119217   4.182   1.927   4.294
 6187SOL    HW219218   4.266   2.009   4.181
 6188SOL     OW19219   5.158   3.050   3.765
 6188SOL    HW119220   5.190   2.974   3.822
 6188SOL    HW219221   5.066   3.077   3.795
 6189SOL     OW19222   4.021   1.897   3.895
 6189SOL    HW119223   4.070   1.981   3.874
 6189SOL    HW219224   4.083   1.832   3.940
 6190SOL     OW19225   4.659   2.098   4.204
 6190SOL    HW119226   4.611   2.139   4.126
 6190SOL    HW219227   4.758   2.096   4.185
 6191SOL     OW19228   4.800   2.545   5.188
 6191SOL    HW119229   4.720   2.484   5.191
 6191SOL    HW219230   4.881   2.492   5.164
 6192SOL     OW19231   4.951   3.432   4.517
 6192SOL    HW119232   4.972   3.506   4.452
 6192SOL    HW219233   5.019   3.432   4.590
 6193SOL     OW19234   4.183   3.014   4.465
 6193SOL    HW119235   4.112   2.987   4.530
 6193SOL    HW219236   4.157   2.986   4.372
 6194SOL     OW19237   4.995   3.659   4.315
 6194SOL    HW119238   5.039   3.723   4.251
 6194SOL    HW219239   4.945   3.711   4.385
 6195SOL     OW19240   4.756   2.411   3.740
 6195SOL    HW119241   4.715   2.493   3.701
 6195SOL    HW219242   4.820   2.437   3.813
 6196SOL     OW19243   3.802   2.418   5.110
 6196SOL    HW119244   3.894   2.417   5.069
 6196SOL    HW219245   3.796   2.492   5.177
 6197SOL     OW19246   4.285   2.084   4.871
 6197SOL    HW119247   4.323   2.000   4.908
 6197SOL    HW219248   4.197   2.103   4.915
 6198SOL     OW19249   4.590   2.316   4.366
 6198SOL    HW119250   4.558   2.388   4.304
 6198SOL    HW219251   4.614   2.235   4.313
 6199SOL     OW19252   4.741   1.901   4.477
 6199SOL    HW119253   4.669   1.906   4.408
 6199SOL    HW219254   4.717   1.832   4.546
 6200SOL     OW19255   5.153   3.035   4.591
 6200SOL    HW119256   5.098   2.951   4.584
 6200SOL    HW219257   5.179   3.064   4.499
 6201SOL     OW19258   4.212   3.247   3.898
 6201SOL    HW119259   4.125   3.232   3.945
 6201SOL    HW219260   4.195   3.273   3.803
 6202SOL     OW19261   5.114   2.437   3.802
 6202SOL    HW119262   5.060   2.416   3.883
 6202SOL    HW219263   5.205   2.396   3.811
 6203SOL     OW19264   4.251   2.118   4.052
 6203SOL    HW119265   4.278   2.059   3.977
 6203SOL    HW219266   4.251   2.213   4.021
 6204SOL     OW19267   4.788   3.209   5.064
 6204SOL    HW119268   4.708   3.186   5.119
 6204SOL    HW219269   4.871   3.183   5.113
 6205SOL     OW19270   5.316   3.491   5.349
 6205SOL    HW119271   5.343   3.525   5.259
 6205SOL    HW219272   5.395   3.453   5.395
 6206SOL     OW19273   4.835   3.057   4.824
 6206SOL    HW119274   4.795   3.101   4.905
 6206SOL    HW219275   4.794   3.094   4.741
 6207SOL     OW19276   4.639   1.951   5.126
 6207SOL    HW119277   4.664   1.931   5.031
 6207SOL    HW219278   4.711   2.007   5.168
 6208SOL     OW19279   4.704   2.978   5.443
 6208SOL    HW119280   4.605   2.984   5.453
 6208SOL    HW219281   4.727   2.898   5.387
 6209SOL     OW19282   4.429   2.912   4.092
 6209SOL    HW119283   4.415   2.919   4.191
 6209SOL    HW219284   4.513   2.861   4.074
 6210SOL     OW19285   4.134   2.675   4.975
 6210SOL    HW119286   4.220   2.687   5.025
 6210SOL    HW219287   4.092   2.588   5.002
 6211SOL     OW19288   4.998   2.248   4.986
 6211SOL    HW119289   5.019   2.322   5.050
 6211SOL    HW219290   4.909   2.265   4.943
 6212SOL     OW19291   3.788   3.426   5.055
 6212SOL    HW119292   3.742   3.508   5.021
 6212SOL    HW219293   3.886   3.445   5.064
 6213SOL     OW19294   4.091   2.962   4.225
 6213SOL    HW119295   4.084   3.045   4.169
 6213SOL    HW219296   4.095   2.882   4.165
 6214SOL     OW19297   4.290   2.399   4.589
 6214SOL    HW119298   4.302   2.465   4.515
 6214SOL    HW219299   4.336   2.433   4.672
 6215SOL     OW19300   4.976   3.210   4.112
 6215SOL    HW119301   5.026   3.287   4.152
 6215SOL    HW219302   4.881   3.212   4.144
 6216SOL     OW19303   4.996   3.307   4.866
 6216SOL    HW119304   5.043   3.320   4.953
 6216SOL    HW219305   4.930   3.233   4.875
 6217SOL     OW19306   4.078   3.372   5.053
 6217SOL    HW119307   4.057   3.328   4.966
 6217SOL    HW219308   4.175   3.398   5.056
 6218SOL     OW19309   4.126   2.613   5.322
 6218SOL    HW119310   4.194   2.668   5.275
 6218SOL    HW219311   4.166   2.525   5.349
 6219SOL     OW19312   4.737   1.967   5.494
 6219SOL    HW119313   4.743   2.052   5.442
 6219SOL    HW219314   4.769   1.891   5.437
 6220SOL     OW19315   4.228   1.912   5.464
 6220SOL    HW119316   4.186   1.855   5.394
 6220SOL    HW219317   4.162   1.981   5.496
 6221SOL     OW19318   4.297   2.732   4.753
 6221SOL    HW119319   4.341   2.821   4.744
 6221SOL    HW219320   4.234   2.732   4.830
 6222SOL     OW19321   5.084   2.724   4.769
 6222SOL    HW119322   5.009   2.724   4.703
 6222SOL    HW219323   5.121   2.632   4.778
 6223SOL     OW19324   4.933   2.387   3.999
 6223SOL    HW119325   4.946   2.303   4.053
 6223SOL    HW219326   4.904   2.461   4.059
 6224SOL     OW19327   4.031   2.075   4.955
 6224SOL    HW119328   4.008   2.112   5.045
 6224SOL    HW219329   4.001   1.980   4.949
 6225SOL     OW19330   3.761   3.172   5.006
 6225SOL    HW119331   3.814   3.123   5.074
 6225SOL    HW219332   3.783   3.270   5.011
 6226SOL     OW19333   4.456   2.496   4.788
 6226SOL    HW119334   4.515   2.470   4.712
 6226SOL    HW219335   4.428   2.592   4.777
 6227SOL     OW19336   4.031   1.925   4.342
 6227SOL    HW119337   4.020   2.019   4.375
 6227SOL    HW219338   4.026   1.862   4.419
 6228SOL     OW19339   5.346   2.229   4.098
 6228SOL    HW119340   5.348   2.153   4.162
 6228SOL    HW219341   5.298   2.306   4.138
 6229SOL     OW19342   4.747   2.628   4.690
 6229SOL    HW119343   4.762   2.649   4.786
 6229SOL    HW219344   4.717   2.533   4.681
 6230SOL     OW19345   4.704   3.435   5.424
 6230SOL    HW119346   4.684   3.479   5.336
 6230SOL    HW219347   4.743   3.344   5.408
 6231SOL     OW19348   4.074   2.760   5.528
 6231SOL    HW119349   4.150   2.804   5.576
 6231SOL    HW219350   4.109   2.713   5.446
 6232SOL     OW19351   5.027   2.700   3.766
 6232SOL    HW119352   5.061   2.607   3.781
 6232SOL    HW219353   5.045   2.727   3.671
 6233SOL     OW19354   4.792   3.195   4.573
 6233SOL    HW119355   4.799   3.111   4.518
 6233SOL    HW219356   4.854   3.264   4.537
 6234SOL     OW19357   4.043   2.672   4.673
 6234SOL    HW119358   4.136   2.708   4.678
 6234SOL    HW219359   4.037   2.587   4.725
 6235SOL     OW19360   4.063   2.371   4.730
 6235SOL    HW119361   4.011   2.288   4.713
 6235SOL    HW219362   4.140   2.376   4.666
 6236SOL     OW19363   4.862   2.242   5.402
 6236SOL    HW119364   4.817   2.305   5.466
 6236SOL    HW219365   4.955   2.273   5.385
 6237SOL     OW19366   4.884   2.069   5.201
 6237SOL    HW119367   4.884   2.133   5.278
 6237SOL    HW219368   4.912   2.117   5.118
 6238SOL     OW19369   3.732   3.188   3.924
 6238SOL    HW119370   3.639   3.209   3.893
 6238SOL    HW219371   3.742   3.089   3.937
 6239SOL     OW19372   3.812   3.663   4.651
 6239SOL    HW119373   3.770   3.577   4.624
 6239SOL    HW219374   3.906   3.666   4.617
 6240SOL     OW19375   4.228   3.430   4.634
 6240SOL    HW119376   4.294   3.504   4.643
 6240SOL    HW219377   4.272   3.351   4.592
 6241SOL     OW19378   4.726   2.658   4.962
 6241SOL    HW119379   4.767   2.626   5.048
 6241SOL    HW219380   4.630   2.631   4.959
 6242SOL     OW19381   3.764   2.406   4.838
 6242SOL    HW119382   3.849   2.373   4.797
 6242SOL    HW219383   3.777   2.421   4.936
 6243SOL     OW19384   3.913   2.382   5.446
 6243SOL    HW119385   3.972   2.342   5.376
 6243SOL    HW219386   3.855   2.453   5.405
 6244SOL     OW19387   5.093   2.812   5.384
 6244SOL    HW119388   5.132   2.901   5.404
 6244SOL    HW219389   5.103   2.792   5.287
 6245SOL     OW19390   4.539   2.434   4.049
 6245SOL    HW119391   4.546   2.345   4.003
 6245SOL    HW219392   4.445   2.468   4.041
 6246SOL     OW19393   3.976   3.426   5.468
 6246SOL    HW119394   3.946   3.483   5.544
 6246SOL    HW219395   3.969   3.329   5.494
 6247SOL     OW19396   4.395   2.326   4.993
 6247SOL    HW119397   4.361   2.237   4.963
 6247SOL    HW219398   4.421   2.380   4.913
 6248SOL     OW19399   4.654   3.540   5.189
 6248SOL    HW119400   4.630   3.522   5.094
 6248SOL    HW219401   4.684   3.634   5.199
 6249SOL     OW19402   4.197   2.362   3.915
 6249SOL    HW119403   4.258   2.442   3.919
 6249SOL    HW219404   4.102   2.393   3.922
 6250SOL     OW19405   3.883   2.999   5.190
 6250SOL    HW119406   3.905   2.938   5.266
 6250SOL    HW219407   3.893   2.950   5.104
 6251SOL     OW19408   5.071   2.921   4.958
 6251SOL    HW119409   5.095   2.858   4.884
 6251SOL    HW219410   4.981   2.961   4.940
 6252SOL     OW19411   5.026   2.717   4.033
 6252SOL    HW119412   4.940   2.686   4.075
 6252SOL    HW219413   5.022   2.703   3.934
 6253SOL     OW19414   4.976   3.593   4.852
 6253SOL    HW119415   5.060   3.598   4.798
 6253SOL    HW219416   4.953   3.497   4.870
 6254SOL     OW19417   3.807   3.120   4.746
 6254SOL    HW119418   3.802   3.119   4.846
 6254SOL    HW219419   3.724   3.079   4.708
 6255SOL     OW19420   4.412   3.524   5.440
 6255SOL    HW119421   4.356   3.605   5.449
 6255SOL    HW219422   4.464   3.528   5.354
 6256SOL     OW19423   5.450   1.997   4.247
 6256SOL    HW119424   5.523   1.980   4.180
 6256SOL    HW219425   5.419   1.910   4.285
 6257SOL     OW19426   5.112   3.435   4.201
 6257SOL    HW119427   5.179   3.447   4.127
 6257SOL    HW219428   5.072   3.524   4.224
 6258SOL     OW19429   3.854   3.656   5.575
 6258SOL    HW119430   3.813   3.582   5.628
 6258SOL    HW219431   3.918   3.707   5.633
 6259SOL     OW19432   5.004   2.789   4.396
 6259SOL    HW119433   5.064   2.708   4.398
 6259SOL    HW219434   5.044   2.858   4.336
 6260SOL     OW19435   4.554   3.135   5.146
 6260SOL    HW119436   4.549   3.168   5.241
 6260SOL    HW219437   4.468   3.154   5.100
 6261SOL     OW19438   4.396   3.478   3.878
 6261SOL    HW119439   4.405   3.488   3.779
 6261SOL    HW219440   4.356   3.389   3.899
 6262SOL     OW19441   3.987   2.188   4.444
 6262SOL    HW119442   3.908   2.239   4.410
 6262SOL    HW219443   3.978   2.173   4.542
 6263SOL     OW19444   4.918   3.474   3.755
 6263SOL    HW119445   4.924   3.381   3.792
 6263SOL    HW219446   4.859   3.474   3.675
 6264SOL     OW19447   4.546   2.864   5.096
 6264SOL    HW119448   4.586   2.863   5.004
 6264SOL    HW219449   4.556   2.956   5.136
 6265SOL     OW19450   4.640   2.772   4.015
 6265SOL    HW119451   4.703   2.810   3.947
 6265SOL    HW219452   4.680   2.689   4.054
 6266SOL     OW19453   4.096   3.150   5.214
 6266SOL    HW119454   4.083   3.243   5.180
 6266SOL    HW219455   4.012   3.098   5.201
 6267SOL     OW19456   4.763   2.960   4.420
 6267SOL    HW119457   4.693   2.913   4.474
 6267SOL    HW219458   4.822   2.892   4.377
 6268SOL     OW19459   4.738   2.098   4.695
 6268SOL    HW119460   4.730   2.062   4.602
 6268SOL    HW219461   4.736   2.022   4.760
 6269SOL     OW19462   4.314   3.349   4.215
 6269SOL    HW119463   4.356   3.291   4.145
 6269SOL    HW219464   4.270   3.428   4.171
 6270SOL     OW19465   3.979   3.210   4.014
 6270SOL    HW119466   3.883   3.211   3.987
 6270SOL    HW219467   3.991   3.263   4.098
 6271SOL     OW19468   3.829   2.875   5.450
 6271SOL    HW119469   3.752   2.842   5.504
 6271SOL    HW219470   3.914   2.845   5.492
 6272SOL     OW19471   4.396   2.065   5.213
 6272SOL    HW119472   4.486   2.049   5.173
 6272SOL    HW219473   4.404   2.070   5.312
 6273SOL     OW19474   3.799   2.207   3.757
 6273SOL    HW119475   3.707   2.179   3.728
 6273SOL    HW219476   3.830   2.284   3.701
 6274SOL     OW19477   5.164   2.718   5.122
 6274SOL    HW119478   5.107   2.770   5.059
 6274SOL    HW219479   5.260   2.730   5.098
 6275SOL     OW19480   3.796   2.028   4.042
 6275SOL    HW119481   3.779   2.111   3.988
 6275SOL    HW219482   3.886   1.991   4.020
 6276SOL     OW19483   4.907   3.197   3.843
 6276SOL    HW119484   4.808   3.186   3.845
 6276SOL    HW219485   4.941   3.212   3.936
 6277SOL     OW19486   4.337   2.704   5.155
 6277SOL    HW119487   4.393   2.785   5.138
 6277SOL    HW219488   4.396   2.624   5.158
 6278SOL     OW19489   4.440   2.427   5.432
 6278SOL    HW119490   4.459   2.492   5.506
 6278SOL    HW219491   4.500   2.347   5.441
 6279SOL     OW19492   5.174   3.082   5.357
 6279SOL    HW119493   5.165   3.072   5.456
 6279SOL    HW219494   5.270   3.075   5.331
 6280SOL     OW19495   4.114   3.603   5.284
 6280SOL    HW119496   4.023   3.644   5.282
 6280SOL    HW219497   4.107   3.509   5.316
 6281SOL     OW19498   4.949   2.187   4.173
 6281SOL    HW119499   5.014   2.113   4.162
 6281SOL    HW219500   4.969   2.237   4.257
 6282SOL     OW19501   4.318   2.607   4.376
 6282SOL    HW119502   4.368   2.692   4.357
 6282SOL    HW219503   4.230   2.609   4.328
 6283SOL     OW19504   4.583   3.236   3.740
 6283SOL    HW119505   4.537   3.251   3.828
 6283SOL    HW219506   4.627   3.321   3.710
 6284SOL     OW19507   4.385   3.652   4.677
 6284SOL    HW119508   4.339   3.740   4.664
 6284SOL    HW219509   4.484   3.664   4.670
 6285SOL     OW19510   4.583   2.818   4.585
 6285SOL    HW119511   4.637   2.749   4.633
 6285SOL    HW219512   4.551   2.887   4.651
 6286SOL     OW19513   4.807   2.846   3.811
 6286SOL    HW119514   4.784   2.899   3.729
 6286SOL    HW219515   4.888   2.790   3.792
 6287SOL     OW19516   3.945   3.176   5.568
 6287SOL    HW119517   3.880   3.103   5.547
 6287SOL    HW219518   3.949   3.190   5.666
 6288SOL     OW19519   3.803   3.102   4.377
 6288SOL    HW119520   3.802   3.055   4.465
 6288SOL    HW219521   3.885   3.074   4.326
 6289SOL     OW19522   4.396   3.253   5.348
 6289SOL    HW119523   4.318   3.203   5.386
 6289SOL    HW219524   4.393   3.348   5.379
 6290SOL     OW19525   4.152   2.286   4.244
 6290SOL    HW119526   4.182   2.214   4.182
 6290SOL    HW219527   4.113   2.246   4.327
 6291SOL     OW19528   5.429   3.349   4.828
 6291SOL    HW119529   5.336   3.324   4.801
 6291SOL    HW219530   5.455   3.299   4.910
 6292SOL     OW19531   4.041   2.409   5.004
 6292SOL    HW119532   4.079   2.350   5.076
 6292SOL    HW219533   4.081   2.383   4.916
 6293SOL     OW19534   4.536   3.448   4.411
 6293SOL    HW119535   4.568   3.458   4.317
 6293SOL    HW219536   4.457   3.386   4.413
 6294SOL     OW19537   5.148   2.076   4.836
 6294SOL    HW119538   5.200   2.011   4.891
 6294SOL    HW219539   5.099   2.139   4.897
 6295SOL     OW19540   4.725   1.896   4.878
 6295SOL    HW119541   4.662   1.824   4.847
 6295SOL    HW219542   4.818   1.860   4.878
 6296SOL     OW19543   4.494   3.192   4.025
 6296SOL    HW119544   4.448   3.105   4.042
 6296SOL    HW219545   4.585   3.189   4.066
 6297SOL     OW19546   4.342   3.429   5.008
 6297SOL    HW119547   4.337   3.511   5.065
 6297SOL    HW219548   4.431   3.426   4.963
 6298SOL     OW19549   5.076   1.914   3.892
 6298SOL    HW119550   5.111   1.873   3.808
 6298SOL    HW219551   4.986   1.876   3.912
 6299SOL     OW19552   5.024   2.315   4.415
 6299SOL    HW119553   4.965   2.395   4.419
 6299SOL    HW219554   5.039   2.280   4.508
 6300SOL     OW19555   5.317   2.083   4.606
 6300SOL    HW119556   5.233   2.082   4.660
 6300SOL    HW219557   5.319   2.166   4.550
 6301SOL     OW19558   3.763   2.939   4.024
 6301SOL    HW119559   3.862   2.928   4.015
 6301SOL    HW219560   3.723   2.853   4.056
 6302SOL     OW19561   4.599   3.508   4.061
 6302SOL    HW119562   4.522   3.473   4.007
 6302SOL    HW219563   4.567   3.579   4.123
 6303SOL     OW19564   3.954   2.490   5.699
 6303SOL    HW119565   3.861   2.488   5.736
 6303SOL    HW219566   3.955   2.451   5.607
 6304SOL     OW19567   3.949   2.137   6.582
 6304SOL    HW119568   3.984   2.120   6.674
 6304SOL    HW219569   3.861   2.092   6.570
 6305SOL     OW19570   3.743   2.230   6.233
 6305SOL    HW119571   3.661   2.273   6.272
 6305SOL    HW219572   3.715   2.157   6.170
 6306SOL     OW19573   4.293   3.137   6.751
 6306SOL    HW119574   4.200   3.130   6.714
 6306SOL    HW219575   4.304   3.226   6.795
 6307SOL     OW19576   5.279   3.373   6.289
 6307SOL    HW119577   5.222   3.357   6.370
 6307SOL    HW219578   5.220   3.383   6.209
 6308SOL     OW19579   4.859   2.565   6.303
 6308SOL    HW119580   4.916   2.643   6.278
 6308SOL    HW219581   4.799   2.591   6.379
 6309SOL     OW19582   4.492   3.006   6.609
 6309SOL    HW119583   4.414   3.023   6.669
 6309SOL    HW219584   4.526   3.093   6.573
 6310SOL     OW19585   4.574   2.660   7.409
 6310SOL    HW119586   4.570   2.736   7.474
 6310SOL    HW219587   4.596   2.696   7.318
 6311SOL     OW19588   4.409   2.874   6.251
 6311SOL    HW119589   4.478   2.858   6.321
 6311SOL    HW219590   4.336   2.931   6.289
 6312SOL     OW19591   4.410   3.023   7.389
 6312SOL    HW119592   4.470   3.102   7.403
 6312SOL    HW219593   4.324   3.054   7.348
 6313SOL     OW19594   4.059   3.297   6.647
 6313SOL    HW119595   3.981   3.266   6.594
 6313SOL    HW219596   4.117   3.355   6.590
 6314SOL     OW19597   5.184   3.367   6.925
 6314SOL    HW119598   5.208   3.461   6.951
 6314SOL    HW219599   5.168   3.313   7.007
 6315SOL     OW19600   4.162   2.254   7.085
 6315SOL    HW119601   4.244   2.198   7.094
 6315SOL    HW219602   4.081   2.196   7.089
 6316SOL     OW19603   3.955   3.575   6.069
 6316SOL    HW119604   3.989   3.652   6.123
 6316SOL    HW219605   3.999   3.575   5.979
 6317SOL     OW19606   4.851   3.203   7.276
 6317SOL    HW119607   4.898   3.203   7.364
 6317SOL    HW219608   4.803   3.116   7.265
 6318SOL     OW19609   3.954   3.296   6.124
 6318SOL    HW119610   3.928   3.392   6.124
 6318SOL    HW219611   3.883   3.242   6.169
 6319SOL     OW19612   3.964   2.953   6.472
 6319SOL    HW119613   3.978   2.869   6.524
 6319SOL    HW219614   3.909   3.017   6.527
 6320SOL     OW19615   4.344   3.648   7.025
 6320SOL    HW119616   4.252   3.631   7.060
 6320SOL    HW219617   4.372   3.740   7.051
 6321SOL     OW19618   4.330   2.826   5.709
 6321SOL    HW119619   4.337   2.910   5.655
 6321SOL    HW219620   4.376   2.839   5.797
 6322SOL     OW19621   3.846   2.505   6.149
 6322SOL    HW119622   3.801   2.417   6.166
 6322SOL    HW219623   3.845   2.559   6.233
 6323SOL     OW19624   3.751   3.458   5.703
 6323SOL    HW119625   3.732   3.362   5.724
 6323SOL    HW219626   3.718   3.516   5.778
 6324SOL     OW19627   5.413   2.784   6.198
 6324SOL    HW119628   5.508   2.755   6.206
 6324SOL    HW219629   5.405   2.849   6.123
 6325SOL     OW19630   3.837   2.599   7.183
 6325SOL    HW119631   3.925   2.586   7.228
 6325SOL    HW219632   3.824   2.696   7.161
 6326SOL     OW19633   4.337   3.227   6.312
 6326SOL    HW119634   4.288   3.140   6.321
 6326SOL    HW219635   4.314   3.270   6.225
 6327SOL     OW19636   5.017   3.090   7.009
 6327SOL    HW119637   5.054   3.017   6.951
 6327SOL    HW219638   5.069   3.095   7.094
 6328SOL     OW19639   4.533   1.866   6.088
 6328SOL    HW119640   4.573   1.957   6.079
 6328SOL    HW219641   4.433   1.874   6.094
 6329SOL     OW19642   3.921   2.838   6.850
 6329SOL    HW119643   4.010   2.793   6.836
 6329SOL    HW219644   3.848   2.773   6.831
 6330SOL     OW19645   4.911   3.654   7.202
 6330SOL    HW119646   4.935   3.714   7.126
 6330SOL    HW219647   4.918   3.559   7.172
 6331SOL     OW19648   4.041   2.113   7.387
 6331SOL    HW119649   4.112   2.184   7.393
 6331SOL    HW219650   3.953   2.152   7.415
 6332SOL     OW19651   5.190   3.279   6.539
 6332SOL    HW119652   5.131   3.285   6.619
 6332SOL    HW219653   5.175   3.191   6.493
 6333SOL     OW19654   4.322   2.591   5.856
 6333SOL    HW119655   4.346   2.660   5.788
 6333SOL    HW219656   4.244   2.624   5.910
 6334SOL     OW19657   5.005   2.207   6.530
 6334SOL    HW119658   4.919   2.157   6.517
 6334SOL    HW219659   5.067   2.153   6.586
 6335SOL     OW19660   4.531   2.467   7.051
 6335SOL    HW119661   4.484   2.464   7.140
 6335SOL    HW219662   4.480   2.412   6.985
 6336SOL     OW19663   5.118   2.331   7.260
 6336SOL    HW119664   5.098   2.374   7.348
 6336SOL    HW219665   5.196   2.269   7.269
 6337SOL     OW19666   4.697   2.752   7.158
 6337SOL    HW119667   4.743   2.668   7.129
 6337SOL    HW219668   4.641   2.786   7.083
 6338SOL     OW19669   4.715   2.272   6.828
 6338SOL    HW119670   4.638   2.306   6.882
 6338SOL    HW219671   4.681   2.221   6.749
 6339SOL     OW19672   4.765   2.563   6.015
 6339SOL    HW119673   4.791   2.559   6.111
 6339SOL    HW219674   4.680   2.512   6.001
 6340SOL     OW19675   3.800   2.673   6.375
 6340SOL    HW119676   3.899   2.661   6.384
 6340SOL    HW219677   3.776   2.768   6.396
 6341SOL     OW19678   3.854   3.683   7.157
 6341SOL    HW119679   3.844   3.668   7.256
 6341SOL    HW219680   3.768   3.719   7.121
 6342SOL     OW19681   4.589   2.210   5.781
 6342SOL    HW119682   4.648   2.273   5.732
 6342SOL    HW219683   4.608   2.116   5.752
 6343SOL     OW19684   5.086   3.006   6.131
 6343SOL    HW119685   5.169   2.977   6.083
 6343SOL    HW219686   5.037   3.073   6.075
 6344SOL     OW19687   4.274   2.058   6.471
 6344SOL    HW119688   4.269   2.053   6.571
 6344SOL    HW219689   4.276   2.154   6.442
 6345SOL     OW19690   4.732   3.318   6.063
 6345SOL    HW119691   4.686   3.390   6.011
 6345SOL    HW219692   4.728   3.338   6.161
 6346SOL     OW19693   4.075   3.663   6.439
 6346SOL    HW119694   4.125   3.577   6.445
 6346SOL    HW219695   4.140   3.740   6.436
 6347SOL     OW19696   4.951   3.412   7.092
 6347SOL    HW119697   4.957   3.335   7.156
 6347SOL    HW219698   4.899   3.386   7.012
 6348SOL     OW19699   4.045   2.805   5.828
 6348SOL    HW119700   4.127   2.844   5.786
 6348SOL    HW219701   4.018   2.723   5.779
 6349SOL     OW19702   4.185   3.128   7.313
 6349SOL    HW119703   4.135   3.129   7.227
 6349SOL    HW219704   4.122   3.110   7.389
 6350SOL     OW19705   4.835   3.638   5.823
 6350SOL    HW119706   4.775   3.576   5.873
 6350SOL    HW219707   4.866   3.594   5.738
 6351SOL     OW19708   3.926   2.147   7.084
 6351SOL    HW119709   3.846   2.207   7.071
 6351SOL    HW219710   3.916   2.098   7.170
 6352SOL     OW19711   4.188   3.605   5.909
 6352SOL    HW119712   4.221   3.644   5.995
 6352SOL    HW219713   4.264   3.598   5.844
 6353SOL     OW19714   5.124   1.969   6.012
 6353SOL    HW119715   5.100   1.932   5.922
 6353SOL    HW219716   5.223   1.985   6.016
 6354SOL     OW19717   3.973   3.647   6.827
 6354SOL    HW119718   4.030   3.582   6.877
 6354SOL    HW219719   3.957   3.614   6.734
 6355SOL     OW19720   4.664   3.560   6.490
 6355SOL    HW119721   4.744   3.503   6.511
 6355SOL    HW219722   4.615   3.520   6.413
 6356SOL     OW19723   4.106   2.562   6.066
 6356SOL    HW119724   4.151   2.472   6.063
 6356SOL    HW219725   4.012   2.551   6.099
 6357SOL     OW19726   4.338   1.984   5.703
 6357SOL    HW119727   4.436   1.962   5.710
 6357SOL    HW219728   4.307   1.967   5.610
 6358SOL     OW19729   4.505   2.126   7.335
 6358SOL    HW119730   4.572   2.065   7.378
 6358SOL    HW219731   4.432   2.145   7.400
 6359SOL     OW19732   4.612   3.376   6.781
 6359SOL    HW119733   4.589   3.351   6.687
 6359SOL    HW219734   4.673   3.307   6.820
 6360SOL     OW19735   5.075   2.452   7.019
 6360SOL    HW119736   5.103   2.409   7.104
 6360SOL    HW219737   5.100   2.548   7.020
 6361SOL     OW19738   4.527   3.264   6.510
 6361SOL    HW119739   4.617   3.278   6.468
 6361SOL    HW219740   4.456   3.266   6.439
 6362SOL     OW19741   4.646   2.365   6.485
 6362SOL    HW119742   4.621   2.356   6.389
 6362SOL    HW219743   4.694   2.283   6.516
 6363SOL     OW19744   4.263   1.926   6.098
 6363SOL    HW119745   4.182   1.927   6.156
 6363SOL    HW219746   4.266   2.009   6.043
 6364SOL     OW19747   5.158   3.050   5.627
 6364SOL    HW119748   5.190   2.974   5.684
 6364SOL    HW219749   5.066   3.077   5.657
 6365SOL     OW19750   4.021   1.897   5.757
 6365SOL    HW119751   4.070   1.981   5.736
 6365SOL    HW219752   4.083   1.832   5.802
 6366SOL     OW19753   4.659   2.098   6.066
 6366SOL    HW119754   4.611   2.139   5.988
 6366SOL    HW219755   4.758   2.096   6.047
 6367SOL     OW19756   4.800   2.545   7.050
 6367SOL    HW119757   4.720   2.484   7.053
 6367SOL    HW219758   4.881   2.492   7.026
 6368SOL     OW19759   4.951   3.432   6.379
 6368SOL    HW119760   4.972   3.506   6.314
 6368SOL    HW219761   5.019   3.432   6.452
 6369SOL     OW19762   4.183   3.014   6.327
 6369SOL    HW119763   4.112   2.987   6.392
 6369SOL    HW219764   4.157   2.986   6.234
 6370SOL     OW19765   4.995   3.659   6.177
 6370SOL    HW119766   5.039   3.723   6.113
 6370SOL    HW219767   4.945   3.711   6.247
 6371SOL     OW19768   4.756   2.411   5.602
 6371SOL    HW119769   4.715   2.493   5.563
 6371SOL    HW219770   4.820   2.437   5.675
 6372SOL     OW19771   3.802   2.418   6.972
 6372SOL    HW119772   3.894   2.417   6.931
 6372SOL    HW219773   3.796   2.492   7.039
 6373SOL     OW19774   4.285   2.084   6.733
 6373SOL    HW119775   4.323   2.000   6.770
 6373SOL    HW219776   4.197   2.103   6.777
 6374SOL     OW19777   4.590   2.316   6.228
 6374SOL    HW119778   4.558   2.388   6.166
 6374SOL    HW219779   4.614   2.235   6.175
 6375SOL     OW19780   4.741   1.901   6.339
 6375SOL    HW119781   4.669   1.906   6.270
 6375SOL    HW219782   4.717   1.832   6.408
 6376SOL     OW19783   5.153   3.035   6.453
 6376SOL    HW119784   5.098   2.951   6.446
 6376SOL    HW219785   5.179   3.064   6.361
 6377SOL     OW19786   4.212   3.247   5.760
 6377SOL    HW119787   4.125   3.232   5.807
 6377SOL    HW219788   4.195   3.273   5.665
 6378SOL     OW19789   5.114   2.437   5.664
 6378SOL    HW119790   5.060   2.416   5.745
 6378SOL    HW219791   5.205   2.396   5.673
 6379SOL     OW19792   4.251   2.118   5.914
 6379SOL    HW119793   4.278   2.059   5.839
 6379SOL    HW219794   4.251   2.213   5.883
 6380SOL     OW19795   4.788   3.209   6.926
 6380SOL    HW119796   4.708   3.186   6.981
 6380SOL    HW219797   4.871   3.183   6.975
 6381SOL     OW19798   5.316   3.491   7.211
 6381SOL    HW119799   5.343   3.525   7.121
 6381SOL    HW219800   5.395   3.453   7.257
 6382SOL     OW19801   4.835   3.057   6.686
 6382SOL    HW119802   4.795   3.101   6.767
 6382SOL    HW219803   4.794   3.094   6.603
 6383SOL     OW19804   4.639   1.951   6.988
 6383SOL    HW119805   4.664   1.931   6.893
 6383SOL    HW219806   4.711   2.007   7.030
 6384SOL     OW19807   4.704   2.978   7.305
 6384SOL    HW119808   4.605   2.984   7.315
 6384SOL    HW219809   4.727   2.898   7.249
 6385SOL     OW19810   4.429   2.912   5.954
 6385SOL    HW119811   4.415   2.919   6.053
 6385SOL    HW219812   4.513   2.861   5.936
 6386SOL     OW19813   4.134   2.675   6.837
 6386SOL    HW119814   4.220   2.687   6.887
 6386SOL    HW219815   4.092   2.588   6.864
 6387SOL     OW19816   4.998   2.248   6.848
 6387SOL    HW119817   5.019   2.322   6.912
 6387SOL    HW219818   4.909   2.265   6.805
 6388SOL     OW19819   3.788   3.426   6.917
 6388SOL    HW119820   3.742   3.508   6.883
 6388SOL    HW219821   3.886   3.445   6.926
 6389SOL     OW19822   4.091   2.962   6.087
 6389SOL    HW119823   4.084   3.045   6.031
 6389SOL    HW219824   4.095   2.882   6.027
 6390SOL     OW19825   4.290   2.399   6.451
 6390SOL    HW119826   4.302   2.465   6.377
 6390SOL    HW219827   4.336   2.433   6.534
 6391SOL     OW19828   4.976   3.210   5.974
 6391SOL    HW119829   5.026   3.287   6.014
 6391SOL    HW219830   4.881   3.212   6.006
 6392SOL     OW19831   4.996   3.307   6.728
 6392SOL    HW119832   5.043   3.320   6.815
 6392SOL    HW219833   4.930   3.233   6.737
 6393SOL     OW19834   4.078   3.372   6.915
 6393SOL    HW119835   4.057   3.328   6.828
 6393SOL    HW219836   4.175   3.398   6.918
 6394SOL     OW19837   4.126   2.613   7.184
 6394SOL    HW119838   4.194   2.668   7.137
 6394SOL    HW219839   4.166   2.525   7.211
 6395SOL     OW19840   4.737   1.967   7.356
 6395SOL    HW119841   4.743   2.052   7.304
 6395SOL    HW219842   4.769   1.891   7.299
 6396SOL     OW19843   4.228   1.912   7.326
 6396SOL    HW119844   4.186   1.855   7.256
 6396SOL    HW219845   4.162   1.981   7.358
 6397SOL     OW19846   4.297   2.732   6.615
 6397SOL    HW119847   4.341   2.821   6.606
 6397SOL    HW219848   4.234   2.732   6.692
 6398SOL     OW19849   5.084   2.724   6.631
 6398SOL    HW119850   5.009   2.724   6.565
 6398SOL    HW219851   5.121   2.632   6.640
 6399SOL     OW19852   4.933   2.387   5.861
 6399SOL    HW119853   4.946   2.303   5.915
 6399SOL    HW219854   4.904   2.461   5.921
 6400SOL     OW19855   4.031   2.075   6.817
 6400SOL    HW119856   4.008   2.112   6.907
 6400SOL    HW219857   4.001   1.980   6.811
 6401SOL     OW19858   3.761   3.172   6.868
 6401SOL    HW119859   3.814   3.123   6.936
 6401SOL    HW219860   3.783   3.270   6.873
 6402SOL     OW19861   4.456   2.496   6.650
 6402SOL    HW119862   4.515   2.470   6.574
 6402SOL    HW219863   4.428   2.592   6.639
 6403SOL     OW19864   4.031   1.925   6.204
 6403SOL    HW119865   4.020   2.019   6.237
 6403SOL    HW219866   4.026   1.862   6.281
 6404SOL     OW19867   5.346   2.229   5.960
 6404SOL    HW119868   5.348   2.153   6.024
 6404SOL    HW219869   5.298   2.306   6.000
 6405SOL     OW19870   4.747   2.628   6.552
 6405SOL    HW119871   4.762   2.649   6.648
 6405SOL    HW219872   4.717   2.533   6.543
 6406SOL     OW19873   4.704   3.435   7.286
 6406SOL    HW119874   4.684   3.479   7.198
 6406SOL    HW219875   4.743   3.344   7.270
 6407SOL     OW19876   4.074   2.760   7.390
 6407SOL    HW119877   4.150   2.804   7.438
 6407SOL    HW219878   4.109   2.713   7.308
 6408SOL     OW19879   5.027   2.700   5.628
 6408SOL    HW119880   5.061   2.607   5.643
 6408SOL    HW219881   5.045   2.727   5.533
 6409SOL     OW19882   4.792   3.195   6.435
 6409SOL    HW119883   4.799   3.111   6.380
 6409SOL    HW219884   4.854   3.264   6.399
 6410SOL     OW19885   4.043   2.672   6.535
 6410SOL    HW119886   4.136   2.708   6.540
 6410SOL    HW219887   4.037   2.587   6.587
 6411SOL     OW19888   4.063   2.371   6.592
 6411SOL    HW119889   4.011   2.288   6.575
 6411SOL    HW219890   4.140   2.376   6.528
 6412SOL     OW19891   4.862   2.242   7.264
 6412SOL    HW119892   4.817   2.305   7.328
 6412SOL    HW219893   4.955   2.273   7.247
 6413SOL     OW19894   4.884   2.069   7.063
 6413SOL    HW119895   4.884   2.133   7.140
 6413SOL    HW219896   4.912   2.117   6.980
 6414SOL     OW19897   3.732   3.188   5.786
 6414SOL    HW119898   3.639   3.209   5.755
 6414SOL    HW219899   3.742   3.089   5.799
 6415SOL     OW19900   3.812   3.663   6.513
 6415SOL    HW119901   3.770   3.577   6.486
 6415SOL    HW219902   3.906   3.666   6.479
 6416SOL     OW19903   4.228   3.430   6.496
 6416SOL    HW119904   4.294   3.504   6.505
 6416SOL    HW219905   4.272   3.351   6.454
 6417SOL     OW19906   4.726   2.658   6.824
 6417SOL    HW119907   4.767   2.626   6.910
 6417SOL    HW219908   4.630   2.631   6.821
 6418SOL     OW19909   3.764   2.406   6.700
 6418SOL    HW119910   3.849   2.373   6.659
 6418SOL    HW219911   3.777   2.421   6.798
 6419SOL     OW19912   3.913   2.382   7.308
 6419SOL    HW119913   3.972   2.342   7.238
 6419SOL    HW219914   3.855   2.453   7.267
 6420SOL     OW19915   5.093   2.812   7.246
 6420SOL    HW119916   5.132   2.901   7.266
 6420SOL    HW219917   5.103   2.792   7.149
 6421SOL     OW19918   4.539   2.434   5.911
 6421SOL    HW119919   4.546   2.345   5.865
 6421SOL    HW219920   4.445   2.468   5.903
 6422SOL     OW19921   3.976   3.426   7.330
 6422SOL    HW119922   3.946   3.483   7.406
 6422SOL    HW219923   3.969   3.329   7.356
 6423SOL     OW19924   4.395   2.326   6.855
 6423SOL    HW119925   4.361   2.237   6.825
 6423SOL    HW219926   4.421   2.380   6.775
 6424SOL     OW19927   4.654   3.540   7.051
 6424SOL    HW119928   4.630   3.522   6.956
 6424SOL    HW219929   4.684   3.634   7.061
 6425SOL     OW19930   4.197   2.362   5.777
 6425SOL    HW119931   4.258   2.442   5.781
 6425SOL    HW219932   4.102   2.393   5.784
 6426SOL     OW19933   3.883   2.999   7.052
 6426SOL    HW119934   3.905   2.938   7.128
 6426SOL    HW219935   3.893   2.950   6.966
 6427SOL     OW19936   5.071   2.921   6.820
 6427SOL    HW119937   5.095   2.858   6.746
 6427SOL    HW219938   4.981   2.961   6.802
 6428SOL     OW19939   5.026   2.717   5.895
 6428SOL    HW119940   4.940   2.686   5.937
 6428SOL    HW219941   5.022   2.703   5.796
 6429SOL     OW19942   4.976   3.593   6.714
 6429SOL    HW119943   5.060   3.598   6.660
 6429SOL    HW219944   4.953   3.497   6.732
 6430SOL     OW19945   3.807   3.120   6.608
 6430SOL    HW119946   3.802   3.119   6.708
 6430SOL    HW219947   3.724   3.079   6.570
 6431SOL     OW19948   4.412   3.524   7.302
 6431SOL    HW119949   4.356   3.605   7.311
 6431SOL    HW219950   4.464   3.528   7.216
 6432SOL     OW19951   5.450   1.997   6.109
 6432SOL    HW119952   5.523   1.980   6.042
 6432SOL    HW219953   5.419   1.910   6.147
 6433SOL     OW19954   5.112   3.435   6.063
 6433SOL    HW119955   5.179   3.447   5.989
 6433SOL    HW219956   5.072   3.524   6.086
 6434SOL     OW19957   3.854   3.656   7.437
 6434SOL    HW119958   3.813   3.582   7.490
 6434SOL    HW219959   3.918   3.707   7.495
 6435SOL     OW19960   5.004   2.789   6.258
 6435SOL    HW119961   5.064   2.708   6.260
 6435SOL    HW219962   5.044   2.858   6.198
 6436SOL     OW19963   4.554   3.135   7.008
 6436SOL    HW119964   4.549   3.168   7.103
 6436SOL    HW219965   4.468   3.154   6.962
 6437SOL     OW19966   4.396   3.478   5.740
 6437SOL    HW119967   4.405   3.488   5.641
 6437SOL    HW219968   4.356   3.389   5.761
 6438SOL     OW19969   3.987   2.188   6.306
 6438SOL    HW119970   3.908   2.239   6.272
 6438SOL    HW219971   3.978   2.173   6.404
 6439SOL     OW19972   4.918   3.474   5.617
 6439SOL    HW119973   4.924   3.381   5.654
 6439SOL    HW219974   4.859   3.474   5.537
 6440SOL     OW19975   4.546   2.864   6.958
 6440SOL    HW119976   4.586   2.863   6.866
 6440SOL    HW219977   4.556   2.956   6.998
 6441SOL     OW19978   4.640   2.772   5.877
 6441SOL    HW119979   4.703   2.810   5.809
 6441SOL    HW219980   4.680   2.689   5.916
 6442SOL     OW19981   4.096   3.150   7.076
 6442SOL    HW119982   4.083   3.243   7.042
 6442SOL    HW219983   4.012   3.098   7.063
 6443SOL     OW19984   4.763   2.960   6.282
 6443SOL    HW119985   4.693   2.913   6.336
 6443SOL    HW219986   4.822   2.892   6.239
 6444SOL     OW19987   4.738   2.098   6.557
 6444SOL    HW119988   4.730   2.062   6.464
 6444SOL    HW219989   4.736   2.022   6.622
 6445SOL     OW19990   4.314   3.349   6.077
 6445SOL    HW119991   4.356   3.291   6.007
 6445SOL    HW219992   4.270   3.428   6.033
 6446SOL     OW19993   3.979   3.210   5.876
 6446SOL    HW119994   3.883   3.211   5.849
 6446SOL    HW219995   3.991   3.263   5.960
 6447SOL     OW19996   3.829   2.875   7.312
 6447SOL    HW119997   3.752   2.842   7.366
 6447SOL    HW219998   3.914   2.845   7.354
 6448SOL     OW19999   4.396   2.065   7.075
 6448SOL    HW120000   4.486   2.049   7.035
 6448SOL    HW220001   4.404   2.070   7.174
 6449SOL     OW20002   3.799   2.207   5.619
 6449SOL    HW120003   3.707   2.179   5.590
 6449SOL    HW220004   3.830   2.284   5.563
 6450SOL     OW20005   5.164   2.718   6.984
 6450SOL    HW120006   5.107   2.770   6.921
 6450SOL    HW220007   5.260   2.730   6.960
 6451SOL     OW20008   3.796   2.028   5.904
 6451SOL    HW120009   3.779   2.111   5.850
 6451SOL    HW220010   3.886   1.991   5.882
 6452SOL     OW20011   4.907   3.197   5.705
 6452SOL    HW120012   4.808   3.186   5.707
 6452SOL    HW220013   4.941   3.212   5.798
 6453SOL     OW20014   4.337   2.704   7.017
 6453SOL    HW120015   4.393   2.785   7.000
 6453SOL    HW220016   4.396   2.624   7.020
 6454SOL     OW20017   4.440   2.427   7.294
 6454SOL    HW120018   4.459   2.492   7.368
 6454SOL    HW220019   4.500   2.347   7.303
 6455SOL     OW20020   5.174   3.082   7.219
 6455SOL    HW120021   5.165   3.072   7.318
 6455SOL    HW220022   5.270   3.075   7.193
 6456SOL     OW20023   4.114   3.603   7.146
 6456SOL    HW120024   4.023   3.644   7.144
 6456SOL    HW220025   4.107   3.509   7.178
 6457SOL     OW20026   4.949   2.187   6.035
 6457SOL    HW120027   5.014   2.113   6.024
 6457SOL    HW220028   4.969   2.237   6.119
 6458SOL     OW20029   4.318   2.607   6.238
 6458SOL    HW120030   4.368   2.692   6.219
 6458SOL    HW220031   4.230   2.609   6.190
 6459SOL     OW20032   4.583   3.236   5.602
 6459SOL    HW120033   4.537   3.251   5.690
 6459SOL    HW220034   4.627   3.321   5.572
 6460SOL     OW20035   4.385   3.652   6.539
 6460SOL    HW120036   4.339   3.740   6.526
 6460SOL    HW220037   4.484   3.664   6.532
 6461SOL     OW20038   4.583   2.818   6.447
 6461SOL    HW120039   4.637   2.749   6.495
 6461SOL    HW220040   4.551   2.887   6.513
 6462SOL     OW20041   4.807   2.846   5.673
 6462SOL    HW120042   4.784   2.899   5.591
 6462SOL    HW220043   4.888   2.790   5.654
 6463SOL     OW20044   3.945   3.176   7.430
 6463SOL    HW120045   3.880   3.103   7.409
 6463SOL    HW220046   3.949   3.190   7.528
 6464SOL     OW20047   3.803   3.102   6.239
 6464SOL    HW120048   3.802   3.055   6.327
 6464SOL    HW220049   3.885   3.074   6.188
 6465SOL     OW20050   4.396   3.253   7.210
 6465SOL    HW120051   4.318   3.203   7.248
 6465SOL    HW220052   4.393   3.348   7.241
 6466SOL     OW20053   4.152   2.286   6.106
 6466SOL    HW120054   4.182   2.214   6.044
 6466SOL    HW220055   4.113   2.246   6.189
 6467SOL     OW20056   5.429   3.349   6.690
 6467SOL    HW120057   5.336   3.324   6.663
 6467SOL    HW220058   5.455   3.299   6.772
 6468SOL     OW20059   4.041   2.409   6.866
 6468SOL    HW120060   4.079   2.350   6.938
 6468SOL    HW220061   4.081   2.383   6.778
 6469SOL     OW20062   4.536   3.448   6.273
 6469SOL    HW120063   4.568   3.458   6.179
 6469SOL    HW220064   4.457   3.386   6.275
 6470SOL     OW20065   5.148   2.076   6.698
 6470SOL    HW120066   5.200   2.011   6.753
 6470SOL    HW220067   5.099   2.139   6.759
 6471SOL     OW20068   4.725   1.896   6.740
 6471SOL    HW120069   4.662   1.824   6.709
 6471SOL    HW220070   4.818   1.860   6.740
 6472SOL     OW20071   4.494   3.192   5.887
 6472SOL    HW120072   4.448   3.105   5.904
 6472SOL    HW220073   4.585   3.189   5.928
 6473SOL     OW20074   4.342   3.429   6.870
 6473SOL    HW120075   4.337   3.511   6.927
 6473SOL    HW220076   4.431   3.426   6.825
 6474SOL     OW20077   5.076   1.914   5.754
 6474SOL    HW120078   5.111   1.873   5.670
 6474SOL    HW220079   4.986   1.876   5.774
 6475SOL     OW20080   5.024   2.315   6.277
 6475SOL    HW120081   4.965   2.395   6.281
 6475SOL    HW220082   5.039   2.280   6.370
 6476SOL     OW20083   5.317   2.083   6.468
 6476SOL    HW120084   5.233   2.082   6.522
 6476SOL    HW220085   5.319   2.166   6.412
 6477SOL     OW20086   3.763   2.939   5.886
 6477SOL    HW120087   3.862   2.928   5.877
 6477SOL    HW220088   3.723   2.853   5.918
 6478SOL     OW20089   4.599   3.508   5.923
 6478SOL    HW120090   4.522   3.473   5.869
 6478SOL    HW220091   4.567   3.579   5.985
 6479SOL     OW20092   3.954   2.490   7.561
 6479SOL    HW120093   3.861   2.488   7.598
 6479SOL    HW220094   3.955   2.451   7.469
 6480SOL     OW20095   3.955   3.575   7.931
 6480SOL    HW120096   3.989   3.652   7.985
 6480SOL    HW220097   3.999   3.575   7.841
 6481SOL     OW20098   3.954   3.296   7.986
 6481SOL    HW120099   3.928   3.392   7.986
 6481SOL    HW220100   3.883   3.242   8.031
 6482SOL     OW20101   4.330   2.826   7.571
 6482SOL    HW120102   4.337   2.910   7.517
 6482SOL    HW220103   4.376   2.839   7.659
 6483SOL     OW20104   3.751   3.458   7.565
 6483SOL    HW120105   3.732   3.362   7.586
 6483SOL    HW220106   3.718   3.516   7.640
 6484SOL     OW20107   5.413   2.784   8.060
 6484SOL    HW120108   5.508   2.755   8.068
 6484SOL    HW220109   5.405   2.849   7.985
 6485SOL     OW20110   4.533   1.866   7.950
 6485SOL    HW120111   4.573   1.957   7.941
 6485SOL    HW220112   4.433   1.874   7.956
 6486SOL     OW20113   4.322   2.591   7.718
 6486SOL    HW120114   4.346   2.660   7.650
 6486SOL    HW220115   4.244   2.624   7.772
 6487SOL     OW20116   3.800   2.673   8.237
 6487SOL    HW120117   3.899   2.661   8.246
 6487SOL    HW220118   3.776   2.768   8.258
 6488SOL     OW20119   4.589   2.210   7.643
 6488SOL    HW120120   4.648   2.273   7.594
 6488SOL    HW220121   4.608   2.116   7.614
 6489SOL     OW20122   4.045   2.805   7.690
 6489SOL    HW120123   4.127   2.844   7.648
 6489SOL    HW220124   4.018   2.723   7.641
 6490SOL     OW20125   4.835   3.638   7.685
 6490SOL    HW120126   4.775   3.576   7.735
 6490SOL    HW220127   4.866   3.594   7.600
 6491SOL     OW20128   4.188   3.605   7.771
 6491SOL    HW120129   4.221   3.644   7.857
 6491SOL    HW220130   4.264   3.598   7.706
 6492SOL     OW20131   5.124   1.969   7.874
 6492SOL    HW120132   5.100   1.932   7.784
 6492SOL    HW220133   5.223   1.985   7.878
 6493SOL     OW20134   4.106   2.562   7.928
 6493SOL    HW120135   4.151   2.472   7.925
 6493SOL    HW220136   4.012   2.551   7.961
 6494SOL     OW20137   4.338   1.984   7.565
 6494SOL    HW120138   4.436   1.962   7.572
 6494SOL    HW220139   4.307   1.967   7.472
 6495SOL     OW20140   4.263   1.926   7.960
 6495SOL    HW120141   4.182   1.927   8.018
 6495SOL    HW220142   4.266   2.009   7.905
 6496SOL     OW20143   5.158   3.050   7.489
 6496SOL    HW120144   5.190   2.974   7.546
 6496SOL    HW220145   5.066   3.077   7.519
 6497SOL     OW20146   4.021   1.897   7.619
 6497SOL    HW120147   4.070   1.981   7.598
 6497SOL    HW220148   4.083   1.832   7.664
 6498SOL     OW20149   4.659   2.098   7.928
 6498SOL    HW120150   4.611   2.139   7.850
 6498SOL    HW220151   4.758   2.096   7.909
 6499SOL     OW20152   4.183   3.014   8.189
 6499SOL    HW120153   4.112   2.987   8.254
 6499SOL    HW220154   4.157   2.986   8.096
 6500SOL     OW20155   4.995   3.659   8.039
 6500SOL    HW120156   5.039   3.723   7.975
 6500SOL    HW220157   4.945   3.711   8.109
 6501SOL     OW20158   4.756   2.411   7.464
 6501SOL    HW120159   4.715   2.493   7.425
 6501SOL    HW220160   4.820   2.437   7.537
 6502SOL     OW20161   4.212   3.247   7.622
 6502SOL    HW120162   4.125   3.232   7.669
 6502SOL    HW220163   4.195   3.273   7.527
 6503SOL     OW20164   5.114   2.437   7.526
 6503SOL    HW120165   5.060   2.416   7.607
 6503SOL    HW220166   5.205   2.396   7.535
 6504SOL     OW20167   4.251   2.118   7.776
 6504SOL    HW120168   4.278   2.059   7.701
 6504SOL    HW220169   4.251   2.213   7.745
 6505SOL     OW20170   4.429   2.912   7.816
 6505SOL    HW120171   4.415   2.919   7.915
 6505SOL    HW220172   4.513   2.861   7.798
 6506SOL     OW20173   4.091   2.962   7.949
 6506SOL    HW120174   4.084   3.045   7.893
 6506SOL    HW220175   4.095   2.882   7.889
 6507SOL     OW20176   4.976   3.210   7.836
 6507SOL    HW120177   5.026   3.287   7.876
 6507SOL    HW220178   4.881   3.212   7.868
 6508SOL     OW20179   5.306   2.501   7.920
 6508SOL    HW120180   5.275   2.562   7.993
 6508SOL    HW220181   5.356   2.553   7.851
 6509SOL     OW20182   4.933   2.387   7.723
 6509SOL    HW120183   4.946   2.303   7.777
 6509SOL    HW220184   4.904   2.461   7.783
 6510SOL     OW20185   5.346   2.229   7.822
 6510SOL    HW120186   5.348   2.153   7.886
 6510SOL    HW220187   5.298   2.306   7.862
 6511SOL     OW20188   5.027   2.700   7.490
 6511SOL    HW120189   5.061   2.607   7.505
 6511SOL    HW220190   5.045   2.727   7.395
 6512SOL     OW20191   3.732   3.188   7.648
 6512SOL    HW120192   3.639   3.209   7.617
 6512SOL    HW220193   3.742   3.089   7.661
 6513SOL     OW20194   4.539   2.434   7.773
 6513SOL    HW120195   4.546   2.345   7.727
 6513SOL    HW220196   4.445   2.468   7.765
 6514SOL     OW20197   4.197   2.362   7.639
 6514SOL    HW120198   4.258   2.442   7.643
 6514SOL    HW220199   4.102   2.393   7.646
 6515SOL     OW20200   5.026   2.717   7.757
 6515SOL    HW120201   4.940   2.686   7.799
 6515SOL    HW220202   5.022   2.703   7.658
 6516SOL     OW20203   5.450   1.997   7.971
 6516SOL    HW120204   5.523   1.980   7.904
 6516SOL    HW220205   5.419   1.910   8.009
 6517SOL     OW20206   5.112   3.435   7.925
 6517SOL    HW120207   5.179   3.447   7.851
 6517SOL    HW220208   5.072   3.524   7.948
 6518SOL     OW20209   4.396   3.478   7.602
 6518SOL    HW120210   4.405   3.488   7.503
 6518SOL    HW220211   4.356   3.389   7.623
 6519SOL     OW20212   4.918   3.474   7.479
 6519SOL    HW120213   4.924   3.381   7.516
 6519SOL    HW220214   4.859   3.474   7.399
 6520SOL     OW20215   4.640   2.772   7.739
 6520SOL    HW120216   4.703   2.810   7.671
 6520SOL    HW220217   4.680   2.689   7.778
 6521SOL     OW20218   4.314   3.349   7.939
 6521SOL    HW120219   4.356   3.291   7.869
 6521SOL    HW220220   4.270   3.428   7.895
 6522SOL     OW20221   3.979   3.210   7.738
 6522SOL    HW120222   3.883   3.211   7.711
 6522SOL    HW220223   3.991   3.263   7.822
 6523SOL     OW20224   3.799   2.207   7.481
 6523SOL    HW120225   3.707   2.179   7.452
 6523SOL    HW220226   3.830   2.284   7.425
 6524SOL     OW20227   3.796   2.028   7.766
 6524SOL    HW120228   3.779   2.111   7.712
 6524SOL    HW220229   3.886   1.991   7.744
 6525SOL     OW20230   4.907   3.197   7.567
 6525SOL    HW120231   4.808   3.186   7.569
 6525SOL    HW220232   4.941   3.212   7.660
 6526SOL     OW20233   5.217   3.629   8.407
 6526SOL    HW120234   5.250   3.693   8.338
 6526SOL    HW220235   5.283   3.623   8.482
 6527SOL     OW20236   4.949   2.187   7.897
 6527SOL    HW120237   5.014   2.113   7.886
 6527SOL    HW220238   4.969   2.237   7.981
 6528SOL     OW20239   4.318   2.607   8.100
 6528SOL    HW120240   4.368   2.692   8.081
 6528SOL    HW220241   4.230   2.609   8.052
 6529SOL     OW20242   4.583   3.236   7.464
 6529SOL    HW120243   4.537   3.251   7.552
 6529SOL    HW220244   4.627   3.321   7.434
 6530SOL     OW20245   4.807   2.846   7.535
 6530SOL    HW120246   4.784   2.899   7.453
 6530SOL    HW220247   4.888   2.790   7.516
 6531SOL     OW20248   4.152   2.286   7.968
 6531SOL    HW120249   4.182   2.214   7.906
 6531SOL    HW220250   4.113   2.246   8.051
 6532SOL     OW20251   4.494   3.192   7.749
 6532SOL    HW120252   4.448   3.105   7.766
 6532SOL    HW220253   4.585   3.189   7.790
 6533SOL     OW20254   5.076   1.914   7.616
 6533SOL    HW120255   5.111   1.873   7.532
 6533SOL    HW220256   4.986   1.876   7.636
 6534SOL     OW20257   3.763   2.939   7.748
 6534SOL    HW120258   3.862   2.928   7.739
 6534SOL    HW220259   3.723   2.853   7.780
 6535SOL     OW20260   4.599   3.508   7.785
 6535SOL    HW120261   4.522   3.473   7.731
 6535SOL    HW220262   4.567   3.579   7.847
 6536SOL     OW20263   3.954   4.352   0.113
 6536SOL    HW120264   3.861   4.350   0.150
 6536SOL    HW220265   3.955   4.313   0.021
 6537SOL     OW20266   3.949   3.999   0.996
 6537SOL    HW120267   3.984   3.982   1.088
 6537SOL    HW220268   3.861   3.954   0.984
 6538SOL     OW20269   3.743   4.092   0.647
 6538SOL    HW120270   3.661   4.135   0.686
 6538SOL    HW220271   3.715   4.019   0.584
 6539SOL     OW20272   4.293   4.999   1.165
 6539SOL    HW120273   4.200   4.992   1.128
 6539SOL    HW220274   4.304   5.088   1.209
 6540SOL     OW20275   5.279   5.235   0.703
 6540SOL    HW120276   5.222   5.219   0.784
 6540SOL    HW220277   5.220   5.245   0.623
 6541SOL     OW20278   4.859   4.427   0.717
 6541SOL    HW120279   4.916   4.505   0.692
 6541SOL    HW220280   4.799   4.453   0.793
 6542SOL     OW20281   4.492   4.868   1.023
 6542SOL    HW120282   4.414   4.885   1.083
 6542SOL    HW220283   4.526   4.955   0.987
 6543SOL     OW20284   4.574   4.522   1.823
 6543SOL    HW120285   4.570   4.598   1.888
 6543SOL    HW220286   4.596   4.558   1.732
 6544SOL     OW20287   4.409   4.736   0.665
 6544SOL    HW120288   4.478   4.720   0.735
 6544SOL    HW220289   4.336   4.793   0.703
 6545SOL     OW20290   4.410   4.885   1.803
 6545SOL    HW120291   4.470   4.964   1.817
 6545SOL    HW220292   4.324   4.916   1.762
 6546SOL     OW20293   4.059   5.159   1.061
 6546SOL    HW120294   3.981   5.128   1.008
 6546SOL    HW220295   4.117   5.217   1.004
 6547SOL     OW20296   5.184   5.229   1.339
 6547SOL    HW120297   5.208   5.323   1.365
 6547SOL    HW220298   5.168   5.175   1.421
 6548SOL     OW20299   4.162   4.116   1.499
 6548SOL    HW120300   4.244   4.060   1.508
 6548SOL    HW220301   4.081   4.058   1.503
 6549SOL     OW20302   4.851   5.065   1.690
 6549SOL    HW120303   4.898   5.065   1.778
 6549SOL    HW220304   4.803   4.978   1.679
 6550SOL     OW20305   3.954   5.158   0.538
 6550SOL    HW120306   3.928   5.254   0.538
 6550SOL    HW220307   3.883   5.104   0.583
 6551SOL     OW20308   3.964   4.815   0.886
 6551SOL    HW120309   3.978   4.731   0.938
 6551SOL    HW220310   3.909   4.879   0.941
 6552SOL     OW20311   4.330   4.688   0.123
 6552SOL    HW120312   4.337   4.772   0.069
 6552SOL    HW220313   4.376   4.701   0.211
 6553SOL     OW20314   3.846   4.367   0.563
 6553SOL    HW120315   3.801   4.279   0.580
 6553SOL    HW220316   3.845   4.421   0.647
 6554SOL     OW20317   3.751   5.320   0.117
 6554SOL    HW120318   3.732   5.224   0.138
 6554SOL    HW220319   3.718   5.378   0.192
 6555SOL     OW20320   5.413   4.646   0.612
 6555SOL    HW120321   5.508   4.617   0.620
 6555SOL    HW220322   5.405   4.711   0.537
 6556SOL     OW20323   3.837   4.461   1.597
 6556SOL    HW120324   3.925   4.448   1.642
 6556SOL    HW220325   3.824   4.558   1.575
 6557SOL     OW20326   4.337   5.089   0.726
 6557SOL    HW120327   4.288   5.002   0.735
 6557SOL    HW220328   4.314   5.132   0.639
 6558SOL     OW20329   5.017   4.952   1.423
 6558SOL    HW120330   5.054   4.879   1.365
 6558SOL    HW220331   5.069   4.957   1.508
 6559SOL     OW20332   4.533   3.728   0.502
 6559SOL    HW120333   4.573   3.819   0.493
 6559SOL    HW220334   4.433   3.736   0.508
 6560SOL     OW20335   3.921   4.700   1.264
 6560SOL    HW120336   4.010   4.655   1.250
 6560SOL    HW220337   3.848   4.635   1.245
 6561SOL     OW20338   4.041   3.975   1.801
 6561SOL    HW120339   4.112   4.046   1.807
 6561SOL    HW220340   3.953   4.014   1.829
 6562SOL     OW20341   5.190   5.141   0.953
 6562SOL    HW120342   5.131   5.147   1.033
 6562SOL    HW220343   5.175   5.053   0.907
 6563SOL     OW20344   5.391   5.438   0.572
 6563SOL    HW120345   5.350   5.415   0.484
 6563SOL    HW220346   5.373   5.364   0.637
 6564SOL     OW20347   4.322   4.453   0.270
 6564SOL    HW120348   4.346   4.522   0.202
 6564SOL    HW220349   4.244   4.486   0.324
 6565SOL     OW20350   5.005   4.069   0.944
 6565SOL    HW120351   4.919   4.019   0.931
 6565SOL    HW220352   5.067   4.015   1.000
 6566SOL     OW20353   4.531   4.329   1.465
 6566SOL    HW120354   4.484   4.326   1.554
 6566SOL    HW220355   4.480   4.274   1.399
 6567SOL     OW20356   5.118   4.193   1.674
 6567SOL    HW120357   5.098   4.236   1.762
 6567SOL    HW220358   5.196   4.131   1.683
 6568SOL     OW20359   4.697   4.614   1.572
 6568SOL    HW120360   4.743   4.530   1.543
 6568SOL    HW220361   4.641   4.648   1.497
 6569SOL     OW20362   4.715   4.134   1.242
 6569SOL    HW120363   4.638   4.168   1.296
 6569SOL    HW220364   4.681   4.083   1.163
 6570SOL     OW20365   4.765   4.425   0.429
 6570SOL    HW120366   4.791   4.421   0.525
 6570SOL    HW220367   4.680   4.374   0.415
 6571SOL     OW20368   3.800   4.535   0.789
 6571SOL    HW120369   3.899   4.523   0.798
 6571SOL    HW220370   3.776   4.630   0.810
 6572SOL     OW20371   4.589   4.072   0.195
 6572SOL    HW120372   4.648   4.135   0.146
 6572SOL    HW220373   4.608   3.978   0.166
 6573SOL     OW20374   5.086   4.868   0.545
 6573SOL    HW120375   5.169   4.839   0.497
 6573SOL    HW220376   5.037   4.935   0.489
 6574SOL     OW20377   4.274   3.920   0.885
 6574SOL    HW120378   4.269   3.915   0.985
 6574SOL    HW220379   4.276   4.016   0.856
 6575SOL     OW20380   4.732   5.180   0.477
 6575SOL    HW120381   4.686   5.252   0.425
 6575SOL    HW220382   4.728   5.200   0.575
 6576SOL     OW20383   4.951   5.274   1.506
 6576SOL    HW120384   4.957   5.197   1.570
 6576SOL    HW220385   4.899   5.248   1.426
 6577SOL     OW20386   4.045   4.667   0.242
 6577SOL    HW120387   4.127   4.706   0.200
 6577SOL    HW220388   4.018   4.585   0.193
 6578SOL     OW20389   4.185   4.990   1.727
 6578SOL    HW120390   4.135   4.991   1.641
 6578SOL    HW220391   4.122   4.972   1.803
 6579SOL     OW20392   4.835   5.500   0.237
 6579SOL    HW120393   4.775   5.438   0.287
 6579SOL    HW220394   4.866   5.456   0.152
 6580SOL     OW20395   3.926   4.009   1.498
 6580SOL    HW120396   3.846   4.069   1.485
 6580SOL    HW220397   3.916   3.960   1.584
 6581SOL     OW20398   5.124   3.831   0.426
 6581SOL    HW120399   5.100   3.794   0.336
 6581SOL    HW220400   5.223   3.847   0.430
 6582SOL     OW20401   4.106   4.424   0.480
 6582SOL    HW120402   4.151   4.334   0.477
 6582SOL    HW220403   4.012   4.413   0.513
 6583SOL     OW20404   4.338   3.846   0.117
 6583SOL    HW120405   4.436   3.824   0.124
 6583SOL    HW220406   4.307   3.829   0.024
 6584SOL     OW20407   4.505   3.988   1.749
 6584SOL    HW120408   4.572   3.927   1.792
 6584SOL    HW220409   4.432   4.007   1.814
 6585SOL     OW20410   5.075   4.314   1.433
 6585SOL    HW120411   5.103   4.271   1.518
 6585SOL    HW220412   5.100   4.410   1.434
 6586SOL     OW20413   4.527   5.126   0.924
 6586SOL    HW120414   4.617   5.140   0.882
 6586SOL    HW220415   4.456   5.128   0.853
 6587SOL     OW20416   4.646   4.227   0.899
 6587SOL    HW120417   4.621   4.218   0.803
 6587SOL    HW220418   4.694   4.145   0.930
 6588SOL     OW20419   4.263   3.788   0.512
 6588SOL    HW120420   4.182   3.789   0.570
 6588SOL    HW220421   4.266   3.871   0.457
 6589SOL     OW20422   5.158   4.912   0.041
 6589SOL    HW120423   5.190   4.836   0.098
 6589SOL    HW220424   5.066   4.939   0.071
 6590SOL     OW20425   4.021   3.759   0.171
 6590SOL    HW120426   4.070   3.843   0.150
 6590SOL    HW220427   4.083   3.694   0.216
 6591SOL     OW20428   4.659   3.960   0.480
 6591SOL    HW120429   4.611   4.001   0.402
 6591SOL    HW220430   4.758   3.958   0.461
 6592SOL     OW20431   4.800   4.407   1.464
 6592SOL    HW120432   4.720   4.346   1.467
 6592SOL    HW220433   4.881   4.354   1.440
 6593SOL     OW20434   4.951   5.294   0.793
 6593SOL    HW120435   4.972   5.368   0.728
 6593SOL    HW220436   5.019   5.294   0.866
 6594SOL     OW20437   4.183   4.876   0.741
 6594SOL    HW120438   4.112   4.849   0.806
 6594SOL    HW220439   4.157   4.848   0.648
 6595SOL     OW20440   4.756   4.273   0.016
 6595SOL    HW120441   4.715   4.355  -0.023
 6595SOL    HW220442   4.820   4.299   0.089
 6596SOL     OW20443   3.802   4.280   1.386
 6596SOL    HW120444   3.894   4.279   1.345
 6596SOL    HW220445   3.796   4.354   1.453
 6597SOL     OW20446   4.285   3.946   1.147
 6597SOL    HW120447   4.323   3.862   1.184
 6597SOL    HW220448   4.197   3.965   1.191
 6598SOL     OW20449   4.590   4.178   0.642
 6598SOL    HW120450   4.558   4.250   0.580
 6598SOL    HW220451   4.614   4.097   0.589
 6599SOL     OW20452   4.741   3.763   0.753
 6599SOL    HW120453   4.669   3.768   0.684
 6599SOL    HW220454   4.717   3.694   0.822
 6600SOL     OW20455   5.153   4.897   0.867
 6600SOL    HW120456   5.098   4.813   0.860
 6600SOL    HW220457   5.179   4.926   0.775
 6601SOL     OW20458   4.212   5.109   0.174
 6601SOL    HW120459   4.125   5.094   0.221
 6601SOL    HW220460   4.195   5.135   0.079
 6602SOL     OW20461   5.114   4.299   0.078
 6602SOL    HW120462   5.060   4.278   0.159
 6602SOL    HW220463   5.205   4.258   0.087
 6603SOL     OW20464   4.251   3.980   0.328
 6603SOL    HW120465   4.278   3.921   0.253
 6603SOL    HW220466   4.251   4.075   0.297
 6604SOL     OW20467   4.788   5.071   1.340
 6604SOL    HW120468   4.708   5.048   1.395
 6604SOL    HW220469   4.871   5.045   1.389
 6605SOL     OW20470   4.835   4.919   1.100
 6605SOL    HW120471   4.795   4.963   1.181
 6605SOL    HW220472   4.794   4.956   1.017
 6606SOL     OW20473   4.639   3.813   1.402
 6606SOL    HW120474   4.664   3.793   1.307
 6606SOL    HW220475   4.711   3.869   1.444
 6607SOL     OW20476   4.704   4.840   1.719
 6607SOL    HW120477   4.605   4.846   1.729
 6607SOL    HW220478   4.727   4.760   1.663
 6608SOL     OW20479   4.429   4.774   0.368
 6608SOL    HW120480   4.415   4.781   0.467
 6608SOL    HW220481   4.513   4.723   0.350
 6609SOL     OW20482   4.134   4.537   1.251
 6609SOL    HW120483   4.220   4.549   1.301
 6609SOL    HW220484   4.092   4.450   1.278
 6610SOL     OW20485   4.998   4.110   1.262
 6610SOL    HW120486   5.019   4.184   1.326
 6610SOL    HW220487   4.909   4.127   1.219
 6611SOL     OW20488   4.091   4.824   0.501
 6611SOL    HW120489   4.084   4.907   0.445
 6611SOL    HW220490   4.095   4.744   0.441
 6612SOL     OW20491   4.290   4.261   0.865
 6612SOL    HW120492   4.302   4.327   0.791
 6612SOL    HW220493   4.336   4.295   0.948
 6613SOL     OW20494   4.976   5.072   0.388
 6613SOL    HW120495   5.026   5.149   0.428
 6613SOL    HW220496   4.881   5.074   0.420
 6614SOL     OW20497   4.996   5.169   1.142
 6614SOL    HW120498   5.043   5.182   1.229
 6614SOL    HW220499   4.930   5.095   1.151
 6615SOL     OW20500   4.078   5.234   1.329
 6615SOL    HW120501   4.057   5.190   1.242
 6615SOL    HW220502   4.175   5.260   1.332
 6616SOL     OW20503   4.126   4.475   1.598
 6616SOL    HW120504   4.194   4.530   1.551
 6616SOL    HW220505   4.166   4.387   1.625
 6617SOL     OW20506   4.737   3.829   1.770
 6617SOL    HW120507   4.743   3.914   1.718
 6617SOL    HW220508   4.769   3.753   1.713
 6618SOL     OW20509   4.228   3.774   1.740
 6618SOL    HW120510   4.186   3.717   1.670
 6618SOL    HW220511   4.162   3.843   1.772
 6619SOL     OW20512   4.297   4.594   1.029
 6619SOL    HW120513   4.341   4.683   1.020
 6619SOL    HW220514   4.234   4.594   1.106
 6620SOL     OW20515   5.084   4.586   1.045
 6620SOL    HW120516   5.009   4.586   0.979
 6620SOL    HW220517   5.121   4.494   1.054
 6621SOL     OW20518   4.933   4.249   0.275
 6621SOL    HW120519   4.946   4.165   0.329
 6621SOL    HW220520   4.904   4.323   0.335
 6622SOL     OW20521   4.031   3.937   1.231
 6622SOL    HW120522   4.008   3.974   1.321
 6622SOL    HW220523   4.001   3.842   1.225
 6623SOL     OW20524   3.761   5.034   1.282
 6623SOL    HW120525   3.814   4.985   1.350
 6623SOL    HW220526   3.783   5.132   1.287
 6624SOL     OW20527   4.456   4.358   1.064
 6624SOL    HW120528   4.515   4.332   0.988
 6624SOL    HW220529   4.428   4.454   1.053
 6625SOL     OW20530   4.031   3.787   0.618
 6625SOL    HW120531   4.020   3.881   0.651
 6625SOL    HW220532   4.026   3.724   0.695
 6626SOL     OW20533   5.346   4.091   0.374
 6626SOL    HW120534   5.348   4.015   0.438
 6626SOL    HW220535   5.298   4.168   0.414
 6627SOL     OW20536   4.747   4.490   0.966
 6627SOL    HW120537   4.762   4.511   1.062
 6627SOL    HW220538   4.717   4.395   0.957
 6628SOL     OW20539   4.074   4.622   1.804
 6628SOL    HW120540   4.150   4.666   1.852
 6628SOL    HW220541   4.109   4.575   1.722
 6629SOL     OW20542   5.027   4.562   0.042
 6629SOL    HW120543   5.061   4.469   0.057
 6629SOL    HW220544   5.045   4.589  -0.053
 6630SOL     OW20545   4.792   5.057   0.849
 6630SOL    HW120546   4.799   4.973   0.794
 6630SOL    HW220547   4.854   5.126   0.813
 6631SOL     OW20548   4.043   4.534   0.949
 6631SOL    HW120549   4.136   4.570   0.954
 6631SOL    HW220550   4.037   4.449   1.001
 6632SOL     OW20551   4.063   4.233   1.006
 6632SOL    HW120552   4.011   4.150   0.989
 6632SOL    HW220553   4.140   4.238   0.942
 6633SOL     OW20554   4.862   4.104   1.678
 6633SOL    HW120555   4.817   4.167   1.742
 6633SOL    HW220556   4.955   4.135   1.661
 6634SOL     OW20557   4.884   3.931   1.477
 6634SOL    HW120558   4.884   3.995   1.554
 6634SOL    HW220559   4.912   3.979   1.394
 6635SOL     OW20560   3.732   5.050   0.200
 6635SOL    HW120561   3.639   5.071   0.169
 6635SOL    HW220562   3.742   4.951   0.213
 6636SOL     OW20563   4.726   4.520   1.238
 6636SOL    HW120564   4.767   4.488   1.324
 6636SOL    HW220565   4.630   4.493   1.235
 6637SOL     OW20566   3.764   4.268   1.114
 6637SOL    HW120567   3.849   4.235   1.073
 6637SOL    HW220568   3.777   4.283   1.212
 6638SOL     OW20569   3.913   4.244   1.722
 6638SOL    HW120570   3.972   4.204   1.652
 6638SOL    HW220571   3.855   4.315   1.681
 6639SOL     OW20572   5.093   4.674   1.660
 6639SOL    HW120573   5.132   4.763   1.680
 6639SOL    HW220574   5.103   4.654   1.563
 6640SOL     OW20575   4.539   4.296   0.325
 6640SOL    HW120576   4.546   4.207   0.279
 6640SOL    HW220577   4.445   4.330   0.317
 6641SOL     OW20578   3.976   5.288   1.744
 6641SOL    HW120579   3.946   5.345   1.820
 6641SOL    HW220580   3.969   5.191   1.770
 6642SOL     OW20581   4.395   4.188   1.269
 6642SOL    HW120582   4.361   4.099   1.239
 6642SOL    HW220583   4.421   4.242   1.189
 6643SOL     OW20584   4.197   4.224   0.191
 6643SOL    HW120585   4.258   4.304   0.195
 6643SOL    HW220586   4.102   4.255   0.198
 6644SOL     OW20587   3.883   4.861   1.466
 6644SOL    HW120588   3.905   4.800   1.542
 6644SOL    HW220589   3.893   4.812   1.380
 6645SOL     OW20590   5.071   4.783   1.234
 6645SOL    HW120591   5.095   4.720   1.160
 6645SOL    HW220592   4.981   4.823   1.216
 6646SOL     OW20593   5.026   4.579   0.309
 6646SOL    HW120594   4.940   4.548   0.351
 6646SOL    HW220595   5.022   4.565   0.210
 6647SOL     OW20596   3.807   4.982   1.022
 6647SOL    HW120597   3.802   4.981   1.122
 6647SOL    HW220598   3.724   4.941   0.984
 6648SOL     OW20599   4.412   5.386   1.716
 6648SOL    HW120600   4.356   5.467   1.725
 6648SOL    HW220601   4.464   5.390   1.630
 6649SOL     OW20602   4.627   3.810   0.133
 6649SOL    HW120603   4.678   3.811   0.047
 6649SOL    HW220604   4.683   3.768   0.204
 6650SOL     OW20605   5.450   3.859   0.523
 6650SOL    HW120606   5.523   3.842   0.456
 6650SOL    HW220607   5.419   3.772   0.561
 6651SOL     OW20608   5.004   4.651   0.672
 6651SOL    HW120609   5.064   4.570   0.674
 6651SOL    HW220610   5.044   4.720   0.612
 6652SOL     OW20611   4.554   4.997   1.422
 6652SOL    HW120612   4.549   5.030   1.517
 6652SOL    HW220613   4.468   5.016   1.376
 6653SOL     OW20614   3.987   4.050   0.720
 6653SOL    HW120615   3.908   4.101   0.686
 6653SOL    HW220616   3.978   4.035   0.818
 6654SOL     OW20617   4.918   5.336   0.031
 6654SOL    HW120618   4.924   5.243   0.068
 6654SOL    HW220619   4.859   5.336  -0.049
 6655SOL     OW20620   4.546   4.726   1.372
 6655SOL    HW120621   4.586   4.725   1.280
 6655SOL    HW220622   4.556   4.818   1.412
 6656SOL     OW20623   4.640   4.634   0.291
 6656SOL    HW120624   4.703   4.672   0.223
 6656SOL    HW220625   4.680   4.551   0.330
 6657SOL     OW20626   4.096   5.012   1.490
 6657SOL    HW120627   4.083   5.105   1.456
 6657SOL    HW220628   4.012   4.960   1.477
 6658SOL     OW20629   4.763   4.822   0.696
 6658SOL    HW120630   4.693   4.775   0.750
 6658SOL    HW220631   4.822   4.754   0.653
 6659SOL     OW20632   4.738   3.960   0.971
 6659SOL    HW120633   4.730   3.924   0.878
 6659SOL    HW220634   4.736   3.884   1.036
 6660SOL     OW20635   3.979   5.072   0.290
 6660SOL    HW120636   3.883   5.073   0.263
 6660SOL    HW220637   3.991   5.125   0.374
 6661SOL     OW20638   3.829   4.737   1.726
 6661SOL    HW120639   3.752   4.704   1.780
 6661SOL    HW220640   3.914   4.707   1.768
 6662SOL     OW20641   4.396   3.927   1.489
 6662SOL    HW120642   4.486   3.911   1.449
 6662SOL    HW220643   4.404   3.932   1.588
 6663SOL     OW20644   3.799   4.069   0.033
 6663SOL    HW120645   3.707   4.041   0.004
 6663SOL    HW220646   3.830   4.146  -0.023
 6664SOL     OW20647   5.164   4.580   1.398
 6664SOL    HW120648   5.107   4.632   1.335
 6664SOL    HW220649   5.260   4.592   1.374
 6665SOL     OW20650   3.796   3.890   0.318
 6665SOL    HW120651   3.779   3.973   0.264
 6665SOL    HW220652   3.886   3.853   0.296
 6666SOL     OW20653   4.907   5.059   0.119
 6666SOL    HW120654   4.808   5.048   0.121
 6666SOL    HW220655   4.941   5.074   0.212
 6667SOL     OW20656   4.337   4.566   1.431
 6667SOL    HW120657   4.393   4.647   1.414
 6667SOL    HW220658   4.396   4.486   1.434
 6668SOL     OW20659   4.440   4.289   1.708
 6668SOL    HW120660   4.459   4.354   1.782
 6668SOL    HW220661   4.500   4.209   1.717
 6669SOL     OW20662   5.174   4.944   1.633
 6669SOL    HW120663   5.165   4.934   1.732
 6669SOL    HW220664   5.270   4.937   1.607
 6670SOL     OW20665   4.949   4.049   0.449
 6670SOL    HW120666   5.014   3.975   0.438
 6670SOL    HW220667   4.969   4.099   0.533
 6671SOL     OW20668   4.318   4.469   0.652
 6671SOL    HW120669   4.368   4.554   0.633
 6671SOL    HW220670   4.230   4.471   0.604
 6672SOL     OW20671   4.583   5.098   0.016
 6672SOL    HW120672   4.537   5.113   0.104
 6672SOL    HW220673   4.627   5.183  -0.014
 6673SOL     OW20674   4.583   4.680   0.861
 6673SOL    HW120675   4.637   4.611   0.909
 6673SOL    HW220676   4.551   4.749   0.927
 6674SOL     OW20677   4.807   4.708   0.087
 6674SOL    HW120678   4.784   4.761   0.005
 6674SOL    HW220679   4.888   4.652   0.068
 6675SOL     OW20680   3.945   5.038   1.844
 6675SOL    HW120681   3.880   4.965   1.823
 6675SOL    HW220682   3.949   5.052   1.942
 6676SOL     OW20683   3.803   4.964   0.653
 6676SOL    HW120684   3.802   4.917   0.741
 6676SOL    HW220685   3.885   4.936   0.602
 6677SOL     OW20686   4.396   5.115   1.624
 6677SOL    HW120687   4.318   5.065   1.662
 6677SOL    HW220688   4.393   5.210   1.655
 6678SOL     OW20689   4.152   4.148   0.520
 6678SOL    HW120690   4.182   4.076   0.458
 6678SOL    HW220691   4.113   4.108   0.603
 6679SOL     OW20692   5.429   5.211   1.104
 6679SOL    HW120693   5.336   5.186   1.077
 6679SOL    HW220694   5.455   5.161   1.186
 6680SOL     OW20695   4.041   4.271   1.280
 6680SOL    HW120696   4.079   4.212   1.352
 6680SOL    HW220697   4.081   4.245   1.192
 6681SOL     OW20698   5.148   3.938   1.112
 6681SOL    HW120699   5.200   3.873   1.167
 6681SOL    HW220700   5.099   4.001   1.173
 6682SOL     OW20701   4.725   3.758   1.154
 6682SOL    HW120702   4.662   3.686   1.123
 6682SOL    HW220703   4.818   3.722   1.154
 6683SOL     OW20704   4.494   5.054   0.301
 6683SOL    HW120705   4.448   4.967   0.318
 6683SOL    HW220706   4.585   5.051   0.342
 6684SOL     OW20707   4.342   5.291   1.284
 6684SOL    HW120708   4.337   5.373   1.341
 6684SOL    HW220709   4.431   5.288   1.239
 6685SOL     OW20710   5.076   3.776   0.168
 6685SOL    HW120711   5.111   3.735   0.084
 6685SOL    HW220712   4.986   3.738   0.188
 6686SOL     OW20713   5.024   4.177   0.691
 6686SOL    HW120714   4.965   4.257   0.695
 6686SOL    HW220715   5.039   4.142   0.784
 6687SOL     OW20716   5.317   3.945   0.882
 6687SOL    HW120717   5.233   3.944   0.936
 6687SOL    HW220718   5.319   4.028   0.826
 6688SOL     OW20719   3.763   4.801   0.300
 6688SOL    HW120720   3.862   4.790   0.291
 6688SOL    HW220721   3.723   4.715   0.332
 6689SOL     OW20722   3.954   4.352   1.975
 6689SOL    HW120723   3.861   4.350   2.012
 6689SOL    HW220724   3.955   4.313   1.883
 6690SOL     OW20725   3.949   3.999   2.858
 6690SOL    HW120726   3.984   3.982   2.950
 6690SOL    HW220727   3.861   3.954   2.846
 6691SOL     OW20728   3.743   4.092   2.509
 6691SOL    HW120729   3.661   4.135   2.548
 6691SOL    HW220730   3.715   4.019   2.446
 6692SOL     OW20731   4.293   4.999   3.027
 6692SOL    HW120732   4.200   4.992   2.990
 6692SOL    HW220733   4.304   5.088   3.071
 6693SOL     OW20734   5.279   5.235   2.565
 6693SOL    HW120735   5.222   5.219   2.646
 6693SOL    HW220736   5.220   5.245   2.485
 6694SOL     OW20737   4.859   4.427   2.579
 6694SOL    HW120738   4.916   4.505   2.554
 6694SOL    HW220739   4.799   4.453   2.655
 6695SOL     OW20740   4.492   4.868   2.885
 6695SOL    HW120741   4.414   4.885   2.945
 6695SOL    HW220742   4.526   4.955   2.849
 6696SOL     OW20743   4.574   4.522   3.685
 6696SOL    HW120744   4.570   4.598   3.750
 6696SOL    HW220745   4.596   4.558   3.594
 6697SOL     OW20746   4.409   4.736   2.527
 6697SOL    HW120747   4.478   4.720   2.597
 6697SOL    HW220748   4.336   4.793   2.565
 6698SOL     OW20749   4.410   4.885   3.665
 6698SOL    HW120750   4.470   4.964   3.679
 6698SOL    HW220751   4.324   4.916   3.624
 6699SOL     OW20752   4.059   5.159   2.923
 6699SOL    HW120753   3.981   5.128   2.870
 6699SOL    HW220754   4.117   5.217   2.866
 6700SOL     OW20755   5.184   5.229   3.201
 6700SOL    HW120756   5.208   5.323   3.227
 6700SOL    HW220757   5.168   5.175   3.283
 6701SOL     OW20758   4.162   4.116   3.361
 6701SOL    HW120759   4.244   4.060   3.370
 6701SOL    HW220760   4.081   4.058   3.365
 6702SOL     OW20761   4.851   5.065   3.552
 6702SOL    HW120762   4.898   5.065   3.640
 6702SOL    HW220763   4.803   4.978   3.541
 6703SOL     OW20764   3.954   5.158   2.400
 6703SOL    HW120765   3.928   5.254   2.400
 6703SOL    HW220766   3.883   5.104   2.445
 6704SOL     OW20767   3.964   4.815   2.748
 6704SOL    HW120768   3.978   4.731   2.800
 6704SOL    HW220769   3.909   4.879   2.803
 6705SOL     OW20770   4.330   4.688   1.985
 6705SOL    HW120771   4.337   4.772   1.931
 6705SOL    HW220772   4.376   4.701   2.073
 6706SOL     OW20773   3.846   4.367   2.425
 6706SOL    HW120774   3.801   4.279   2.442
 6706SOL    HW220775   3.845   4.421   2.509
 6707SOL     OW20776   3.751   5.320   1.979
 6707SOL    HW120777   3.732   5.224   2.000
 6707SOL    HW220778   3.718   5.378   2.054
 6708SOL     OW20779   5.413   4.646   2.474
 6708SOL    HW120780   5.508   4.617   2.482
 6708SOL    HW220781   5.405   4.711   2.399
 6709SOL     OW20782   3.837   4.461   3.459
 6709SOL    HW120783   3.925   4.448   3.504
 6709SOL    HW220784   3.824   4.558   3.437
 6710SOL     OW20785   4.337   5.089   2.588
 6710SOL    HW120786   4.288   5.002   2.597
 6710SOL    HW220787   4.314   5.132   2.501
 6711SOL     OW20788   5.017   4.952   3.285
 6711SOL    HW120789   5.054   4.879   3.227
 6711SOL    HW220790   5.069   4.957   3.370
 6712SOL     OW20791   4.533   3.728   2.364
 6712SOL    HW120792   4.573   3.819   2.355
 6712SOL    HW220793   4.433   3.736   2.370
 6713SOL     OW20794   3.921   4.700   3.126
 6713SOL    HW120795   4.010   4.655   3.112
 6713SOL    HW220796   3.848   4.635   3.107
 6714SOL     OW20797   4.041   3.975   3.663
 6714SOL    HW120798   4.112   4.046   3.669
 6714SOL    HW220799   3.953   4.014   3.691
 6715SOL     OW20800   5.190   5.141   2.815
 6715SOL    HW120801   5.131   5.147   2.895
 6715SOL    HW220802   5.175   5.053   2.769
 6716SOL     OW20803   5.391   5.438   2.434
 6716SOL    HW120804   5.350   5.415   2.346
 6716SOL    HW220805   5.373   5.364   2.499
 6717SOL     OW20806   4.322   4.453   2.132
 6717SOL    HW120807   4.346   4.522   2.064
 6717SOL    HW220808   4.244   4.486   2.186
 6718SOL     OW20809   5.005   4.069   2.806
 6718SOL    HW120810   4.919   4.019   2.793
 6718SOL    HW220811   5.067   4.015   2.862
 6719SOL     OW20812   4.531   4.329   3.327
 6719SOL    HW120813   4.484   4.326   3.416
 6719SOL    HW220814   4.480   4.274   3.261
 6720SOL     OW20815   5.118   4.193   3.536
 6720SOL    HW120816   5.098   4.236   3.624
 6720SOL    HW220817   5.196   4.131   3.545
 6721SOL     OW20818   4.697   4.614   3.434
 6721SOL    HW120819   4.743   4.530   3.405
 6721SOL    HW220820   4.641   4.648   3.359
 6722SOL     OW20821   4.715   4.134   3.104
 6722SOL    HW120822   4.638   4.168   3.158
 6722SOL    HW220823   4.681   4.083   3.025
 6723SOL     OW20824   4.765   4.425   2.291
 6723SOL    HW120825   4.791   4.421   2.387
 6723SOL    HW220826   4.680   4.374   2.277
 6724SOL     OW20827   3.800   4.535   2.651
 6724SOL    HW120828   3.899   4.523   2.660
 6724SOL    HW220829   3.776   4.630   2.672
 6725SOL     OW20830   4.589   4.072   2.057
 6725SOL    HW120831   4.648   4.135   2.008
 6725SOL    HW220832   4.608   3.978   2.028
 6726SOL     OW20833   5.086   4.868   2.407
 6726SOL    HW120834   5.169   4.839   2.359
 6726SOL    HW220835   5.037   4.935   2.351
 6727SOL     OW20836   4.274   3.920   2.747
 6727SOL    HW120837   4.269   3.915   2.847
 6727SOL    HW220838   4.276   4.016   2.718
 6728SOL     OW20839   4.732   5.180   2.339
 6728SOL    HW120840   4.686   5.252   2.287
 6728SOL    HW220841   4.728   5.200   2.437
 6729SOL     OW20842   4.951   5.274   3.368
 6729SOL    HW120843   4.957   5.197   3.432
 6729SOL    HW220844   4.899   5.248   3.288
 6730SOL     OW20845   4.045   4.667   2.104
 6730SOL    HW120846   4.127   4.706   2.062
 6730SOL    HW220847   4.018   4.585   2.055
 6731SOL     OW20848   4.185   4.990   3.589
 6731SOL    HW120849   4.135   4.991   3.503
 6731SOL    HW220850   4.122   4.972   3.665
 6732SOL     OW20851   4.835   5.500   2.099
 6732SOL    HW120852   4.775   5.438   2.149
 6732SOL    HW220853   4.866   5.456   2.014
 6733SOL     OW20854   3.926   4.009   3.360
 6733SOL    HW120855   3.846   4.069   3.347
 6733SOL    HW220856   3.916   3.960   3.446
 6734SOL     OW20857   5.124   3.831   2.288
 6734SOL    HW120858   5.100   3.794   2.198
 6734SOL    HW220859   5.223   3.847   2.292
 6735SOL     OW20860   4.106   4.424   2.342
 6735SOL    HW120861   4.151   4.334   2.339
 6735SOL    HW220862   4.012   4.413   2.375
 6736SOL     OW20863   4.338   3.846   1.979
 6736SOL    HW120864   4.436   3.824   1.986
 6736SOL    HW220865   4.307   3.829   1.886
 6737SOL     OW20866   4.505   3.988   3.611
 6737SOL    HW120867   4.572   3.927   3.654
 6737SOL    HW220868   4.432   4.007   3.676
 6738SOL     OW20869   5.075   4.314   3.295
 6738SOL    HW120870   5.103   4.271   3.380
 6738SOL    HW220871   5.100   4.410   3.296
 6739SOL     OW20872   4.527   5.126   2.786
 6739SOL    HW120873   4.617   5.140   2.744
 6739SOL    HW220874   4.456   5.128   2.715
 6740SOL     OW20875   4.646   4.227   2.761
 6740SOL    HW120876   4.621   4.218   2.665
 6740SOL    HW220877   4.694   4.145   2.792
 6741SOL     OW20878   4.263   3.788   2.374
 6741SOL    HW120879   4.182   3.789   2.432
 6741SOL    HW220880   4.266   3.871   2.319
 6742SOL     OW20881   5.158   4.912   1.903
 6742SOL    HW120882   5.190   4.836   1.960
 6742SOL    HW220883   5.066   4.939   1.933
 6743SOL     OW20884   4.021   3.759   2.033
 6743SOL    HW120885   4.070   3.843   2.012
 6743SOL    HW220886   4.083   3.694   2.078
 6744SOL     OW20887   4.659   3.960   2.342
 6744SOL    HW120888   4.611   4.001   2.264
 6744SOL    HW220889   4.758   3.958   2.323
 6745SOL     OW20890   4.800   4.407   3.326
 6745SOL    HW120891   4.720   4.346   3.329
 6745SOL    HW220892   4.881   4.354   3.302
 6746SOL     OW20893   4.951   5.294   2.655
 6746SOL    HW120894   4.972   5.368   2.590
 6746SOL    HW220895   5.019   5.294   2.728
 6747SOL     OW20896   4.183   4.876   2.603
 6747SOL    HW120897   4.112   4.849   2.668
 6747SOL    HW220898   4.157   4.848   2.510
 6748SOL     OW20899   4.756   4.273   1.878
 6748SOL    HW120900   4.715   4.355   1.839
 6748SOL    HW220901   4.820   4.299   1.951
 6749SOL     OW20902   3.802   4.280   3.248
 6749SOL    HW120903   3.894   4.279   3.207
 6749SOL    HW220904   3.796   4.354   3.315
 6750SOL     OW20905   4.285   3.946   3.009
 6750SOL    HW120906   4.323   3.862   3.046
 6750SOL    HW220907   4.197   3.965   3.053
 6751SOL     OW20908   4.590   4.178   2.504
 6751SOL    HW120909   4.558   4.250   2.442
 6751SOL    HW220910   4.614   4.097   2.451
 6752SOL     OW20911   4.741   3.763   2.615
 6752SOL    HW120912   4.669   3.768   2.546
 6752SOL    HW220913   4.717   3.694   2.684
 6753SOL     OW20914   5.153   4.897   2.729
 6753SOL    HW120915   5.098   4.813   2.722
 6753SOL    HW220916   5.179   4.926   2.637
 6754SOL     OW20917   4.212   5.109   2.036
 6754SOL    HW120918   4.125   5.094   2.083
 6754SOL    HW220919   4.195   5.135   1.941
 6755SOL     OW20920   5.114   4.299   1.940
 6755SOL    HW120921   5.060   4.278   2.021
 6755SOL    HW220922   5.205   4.258   1.949
 6756SOL     OW20923   4.251   3.980   2.190
 6756SOL    HW120924   4.278   3.921   2.115
 6756SOL    HW220925   4.251   4.075   2.159
 6757SOL     OW20926   4.788   5.071   3.202
 6757SOL    HW120927   4.708   5.048   3.257
 6757SOL    HW220928   4.871   5.045   3.251
 6758SOL     OW20929   4.835   4.919   2.962
 6758SOL    HW120930   4.795   4.963   3.043
 6758SOL    HW220931   4.794   4.956   2.879
 6759SOL     OW20932   4.639   3.813   3.264
 6759SOL    HW120933   4.664   3.793   3.169
 6759SOL    HW220934   4.711   3.869   3.306
 6760SOL     OW20935   4.704   4.840   3.581
 6760SOL    HW120936   4.605   4.846   3.591
 6760SOL    HW220937   4.727   4.760   3.525
 6761SOL     OW20938   4.429   4.774   2.230
 6761SOL    HW120939   4.415   4.781   2.329
 6761SOL    HW220940   4.513   4.723   2.212
 6762SOL     OW20941   4.134   4.537   3.113
 6762SOL    HW120942   4.220   4.549   3.163
 6762SOL    HW220943   4.092   4.450   3.140
 6763SOL     OW20944   4.998   4.110   3.124
 6763SOL    HW120945   5.019   4.184   3.188
 6763SOL    HW220946   4.909   4.127   3.081
 6764SOL     OW20947   4.091   4.824   2.363
 6764SOL    HW120948   4.084   4.907   2.307
 6764SOL    HW220949   4.095   4.744   2.303
 6765SOL     OW20950   4.290   4.261   2.727
 6765SOL    HW120951   4.302   4.327   2.653
 6765SOL    HW220952   4.336   4.295   2.810
 6766SOL     OW20953   4.976   5.072   2.250
 6766SOL    HW120954   5.026   5.149   2.290
 6766SOL    HW220955   4.881   5.074   2.282
 6767SOL     OW20956   4.996   5.169   3.004
 6767SOL    HW120957   5.043   5.182   3.091
 6767SOL    HW220958   4.930   5.095   3.013
 6768SOL     OW20959   4.078   5.234   3.191
 6768SOL    HW120960   4.057   5.190   3.104
 6768SOL    HW220961   4.175   5.260   3.194
 6769SOL     OW20962   4.126   4.475   3.460
 6769SOL    HW120963   4.194   4.530   3.413
 6769SOL    HW220964   4.166   4.387   3.487
 6770SOL     OW20965   4.737   3.829   3.632
 6770SOL    HW120966   4.743   3.914   3.580
 6770SOL    HW220967   4.769   3.753   3.575
 6771SOL     OW20968   4.228   3.774   3.602
 6771SOL    HW120969   4.186   3.717   3.532
 6771SOL    HW220970   4.162   3.843   3.634
 6772SOL     OW20971   4.297   4.594   2.891
 6772SOL    HW120972   4.341   4.683   2.882
 6772SOL    HW220973   4.234   4.594   2.968
 6773SOL     OW20974   5.084   4.586   2.907
 6773SOL    HW120975   5.009   4.586   2.841
 6773SOL    HW220976   5.121   4.494   2.916
 6774SOL     OW20977   4.933   4.249   2.137
 6774SOL    HW120978   4.946   4.165   2.191
 6774SOL    HW220979   4.904   4.323   2.197
 6775SOL     OW20980   4.031   3.937   3.093
 6775SOL    HW120981   4.008   3.974   3.183
 6775SOL    HW220982   4.001   3.842   3.087
 6776SOL     OW20983   3.761   5.034   3.144
 6776SOL    HW120984   3.814   4.985   3.212
 6776SOL    HW220985   3.783   5.132   3.149
 6777SOL     OW20986   4.456   4.358   2.926
 6777SOL    HW120987   4.515   4.332   2.850
 6777SOL    HW220988   4.428   4.454   2.915
 6778SOL     OW20989   4.031   3.787   2.480
 6778SOL    HW120990   4.020   3.881   2.513
 6778SOL    HW220991   4.026   3.724   2.557
 6779SOL     OW20992   5.346   4.091   2.236
 6779SOL    HW120993   5.348   4.015   2.300
 6779SOL    HW220994   5.298   4.168   2.276
 6780SOL     OW20995   4.747   4.490   2.828
 6780SOL    HW120996   4.762   4.511   2.924
 6780SOL    HW220997   4.717   4.395   2.819
 6781SOL     OW20998   4.074   4.622   3.666
 6781SOL    HW120999   4.150   4.666   3.714
 6781SOL    HW221000   4.109   4.575   3.584
 6782SOL     OW21001   5.027   4.562   1.904
 6782SOL    HW121002   5.061   4.469   1.919
 6782SOL    HW221003   5.045   4.589   1.809
 6783SOL     OW21004   4.792   5.057   2.711
 6783SOL    HW121005   4.799   4.973   2.656
 6783SOL    HW221006   4.854   5.126   2.675
 6784SOL     OW21007   4.043   4.534   2.811
 6784SOL    HW121008   4.136   4.570   2.816
 6784SOL    HW221009   4.037   4.449   2.863
 6785SOL     OW21010   4.063   4.233   2.868
 6785SOL    HW121011   4.011   4.150   2.851
 6785SOL    HW221012   4.140   4.238   2.804
 6786SOL     OW21013   4.862   4.104   3.540
 6786SOL    HW121014   4.817   4.167   3.604
 6786SOL    HW221015   4.955   4.135   3.523
 6787SOL     OW21016   4.884   3.931   3.339
 6787SOL    HW121017   4.884   3.995   3.416
 6787SOL    HW221018   4.912   3.979   3.256
 6788SOL     OW21019   3.732   5.050   2.062
 6788SOL    HW121020   3.639   5.071   2.031
 6788SOL    HW221021   3.742   4.951   2.075
 6789SOL     OW21022   4.726   4.520   3.100
 6789SOL    HW121023   4.767   4.488   3.186
 6789SOL    HW221024   4.630   4.493   3.097
 6790SOL     OW21025   3.764   4.268   2.976
 6790SOL    HW121026   3.849   4.235   2.935
 6790SOL    HW221027   3.777   4.283   3.074
 6791SOL     OW21028   3.913   4.244   3.584
 6791SOL    HW121029   3.972   4.204   3.514
 6791SOL    HW221030   3.855   4.315   3.543
 6792SOL     OW21031   5.093   4.674   3.522
 6792SOL    HW121032   5.132   4.763   3.542
 6792SOL    HW221033   5.103   4.654   3.425
 6793SOL     OW21034   4.539   4.296   2.187
 6793SOL    HW121035   4.546   4.207   2.141
 6793SOL    HW221036   4.445   4.330   2.179
 6794SOL     OW21037   3.976   5.288   3.606
 6794SOL    HW121038   3.946   5.345   3.682
 6794SOL    HW221039   3.969   5.191   3.632
 6795SOL     OW21040   4.395   4.188   3.131
 6795SOL    HW121041   4.361   4.099   3.101
 6795SOL    HW221042   4.421   4.242   3.051
 6796SOL     OW21043   4.197   4.224   2.053
 6796SOL    HW121044   4.258   4.304   2.057
 6796SOL    HW221045   4.102   4.255   2.060
 6797SOL     OW21046   3.883   4.861   3.328
 6797SOL    HW121047   3.905   4.800   3.404
 6797SOL    HW221048   3.893   4.812   3.242
 6798SOL     OW21049   5.071   4.783   3.096
 6798SOL    HW121050   5.095   4.720   3.022
 6798SOL    HW221051   4.981   4.823   3.078
 6799SOL     OW21052   5.026   4.579   2.171
 6799SOL    HW121053   4.940   4.548   2.213
 6799SOL    HW221054   5.022   4.565   2.072
 6800SOL     OW21055   3.807   4.982   2.884
 6800SOL    HW121056   3.802   4.981   2.984
 6800SOL    HW221057   3.724   4.941   2.846
 6801SOL     OW21058   4.412   5.386   3.578
 6801SOL    HW121059   4.356   5.467   3.587
 6801SOL    HW221060   4.464   5.390   3.492
 6802SOL     OW21061   5.450   3.859   2.385
 6802SOL    HW121062   5.523   3.842   2.318
 6802SOL    HW221063   5.419   3.772   2.423
 6803SOL     OW21064   5.004   4.651   2.534
 6803SOL    HW121065   5.064   4.570   2.536
 6803SOL    HW221066   5.044   4.720   2.474
 6804SOL     OW21067   4.554   4.997   3.284
 6804SOL    HW121068   4.549   5.030   3.379
 6804SOL    HW221069   4.468   5.016   3.238
 6805SOL     OW21070   3.987   4.050   2.582
 6805SOL    HW121071   3.908   4.101   2.548
 6805SOL    HW221072   3.978   4.035   2.680
 6806SOL     OW21073   4.546   4.726   3.234
 6806SOL    HW121074   4.586   4.725   3.142
 6806SOL    HW221075   4.556   4.818   3.274
 6807SOL     OW21076   4.640   4.634   2.153
 6807SOL    HW121077   4.703   4.672   2.085
 6807SOL    HW221078   4.680   4.551   2.192
 6808SOL     OW21079   4.096   5.012   3.352
 6808SOL    HW121080   4.083   5.105   3.318
 6808SOL    HW221081   4.012   4.960   3.339
 6809SOL     OW21082   4.763   4.822   2.558
 6809SOL    HW121083   4.693   4.775   2.612
 6809SOL    HW221084   4.822   4.754   2.515
 6810SOL     OW21085   4.738   3.960   2.833
 6810SOL    HW121086   4.730   3.924   2.740
 6810SOL    HW221087   4.736   3.884   2.898
 6811SOL     OW21088   3.979   5.072   2.152
 6811SOL    HW121089   3.883   5.073   2.125
 6811SOL    HW221090   3.991   5.125   2.236
 6812SOL     OW21091   3.829   4.737   3.588
 6812SOL    HW121092   3.752   4.704   3.642
 6812SOL    HW221093   3.914   4.707   3.630
 6813SOL     OW21094   4.396   3.927   3.351
 6813SOL    HW121095   4.486   3.911   3.311
 6813SOL    HW221096   4.404   3.932   3.450
 6814SOL     OW21097   3.799   4.069   1.895
 6814SOL    HW121098   3.707   4.041   1.866
 6814SOL    HW221099   3.830   4.146   1.839
 6815SOL     OW21100   5.164   4.580   3.260
 6815SOL    HW121101   5.107   4.632   3.197
 6815SOL    HW221102   5.260   4.592   3.236
 6816SOL     OW21103   3.796   3.890   2.180
 6816SOL    HW121104   3.779   3.973   2.126
 6816SOL    HW221105   3.886   3.853   2.158
 6817SOL     OW21106   4.907   5.059   1.981
 6817SOL    HW121107   4.808   5.048   1.983
 6817SOL    HW221108   4.941   5.074   2.074
 6818SOL     OW21109   4.337   4.566   3.293
 6818SOL    HW121110   4.393   4.647   3.276
 6818SOL    HW221111   4.396   4.486   3.296
 6819SOL     OW21112   4.440   4.289   3.570
 6819SOL    HW121113   4.459   4.354   3.644
 6819SOL    HW221114   4.500   4.209   3.579
 6820SOL     OW21115   5.174   4.944   3.495
 6820SOL    HW121116   5.165   4.934   3.594
 6820SOL    HW221117   5.270   4.937   3.469
 6821SOL     OW21118   4.949   4.049   2.311
 6821SOL    HW121119   5.014   3.975   2.300
 6821SOL    HW221120   4.969   4.099   2.395
 6822SOL     OW21121   4.318   4.469   2.514
 6822SOL    HW121122   4.368   4.554   2.495
 6822SOL    HW221123   4.230   4.471   2.466
 6823SOL     OW21124   4.583   5.098   1.878
 6823SOL    HW121125   4.537   5.113   1.966
 6823SOL    HW221126   4.627   5.183   1.848
 6824SOL     OW21127   4.583   4.680   2.723
 6824SOL    HW121128   4.637   4.611   2.771
 6824SOL    HW221129   4.551   4.749   2.789
 6825SOL     OW21130   4.807   4.708   1.949
 6825SOL    HW121131   4.784   4.761   1.867
 6825SOL    HW221132   4.888   4.652   1.930
 6826SOL     OW21133   3.945   5.038   3.706
 6826SOL    HW121134   3.880   4.965   3.685
 6826SOL    HW221135   3.949   5.052   3.804
 6827SOL     OW21136   3.803   4.964   2.515
 6827SOL    HW121137   3.802   4.917   2.603
 6827SOL    HW221138   3.885   4.936   2.464
 6828SOL     OW21139   4.396   5.115   3.486
 6828SOL    HW121140   4.318   5.065   3.524
 6828SOL    HW221141   4.393   5.210   3.517
 6829SOL     OW21142   4.152   4.148   2.382
 6829SOL    HW121143   4.182   4.076   2.320
 6829SOL    HW221144   4.113   4.108   2.465
 6830SOL     OW21145   5.429   5.211   2.966
 6830SOL    HW121146   5.336   5.186   2.939
 6830SOL    HW221147   5.455   5.161   3.048
 6831SOL     OW21148   4.041   4.271   3.142
 6831SOL    HW121149   4.079   4.212   3.214
 6831SOL    HW221150   4.081   4.245   3.054
 6832SOL     OW21151   5.148   3.938   2.974
 6832SOL    HW121152   5.200   3.873   3.029
 6832SOL    HW221153   5.099   4.001   3.035
 6833SOL     OW21154   4.725   3.758   3.016
 6833SOL    HW121155   4.662   3.686   2.985
 6833SOL    HW221156   4.818   3.722   3.016
 6834SOL     OW21157   4.494   5.054   2.163
 6834SOL    HW121158   4.448   4.967   2.180
 6834SOL    HW221159   4.585   5.051   2.204
 6835SOL     OW21160   4.342   5.291   3.146
 6835SOL    HW121161   4.337   5.373   3.203
 6835SOL    HW221162   4.431   5.288   3.101
 6836SOL     OW21163   5.076   3.776   2.030
 6836SOL    HW121164   5.111   3.735   1.946
 6836SOL    HW221165   4.986   3.738   2.050
 6837SOL     OW21166   5.024   4.177   2.553
 6837SOL    HW121167   4.965   4.257   2.557
 6837SOL    HW221168   5.039   4.142   2.646
 6838SOL     OW21169   5.317   3.945   2.744
 6838SOL    HW121170   5.233   3.944   2.798
 6838SOL    HW221171   5.319   4.028   2.688
 6839SOL     OW21172   3.763   4.801   2.162
 6839SOL    HW121173   3.862   4.790   2.153
 6839SOL    HW221174   3.723   4.715   2.194
 6840SOL     OW21175   3.954   4.352   3.837
 6840SOL    HW121176   3.861   4.350   3.874
 6840SOL    HW221177   3.955   4.313   3.745
 6841SOL     OW21178   3.949   3.999   4.720
 6841SOL    HW121179   3.984   3.982   4.812
 6841SOL    HW221180   3.861   3.954   4.708
 6842SOL     OW21181   3.743   4.092   4.371
 6842SOL    HW121182   3.661   4.135   4.410
 6842SOL    HW221183   3.715   4.019   4.308
 6843SOL     OW21184   4.293   4.999   4.889
 6843SOL    HW121185   4.200   4.992   4.852
 6843SOL    HW221186   4.304   5.088   4.933
 6844SOL     OW21187   5.279   5.235   4.427
 6844SOL    HW121188   5.222   5.219   4.508
 6844SOL    HW221189   5.220   5.245   4.347
 6845SOL     OW21190   4.859   4.427   4.441
 6845SOL    HW121191   4.916   4.505   4.416
 6845SOL    HW221192   4.799   4.453   4.517
 6846SOL     OW21193   4.492   4.868   4.747
 6846SOL    HW121194   4.414   4.885   4.807
 6846SOL    HW221195   4.526   4.955   4.711
 6847SOL     OW21196   4.574   4.522   5.547
 6847SOL    HW121197   4.570   4.598   5.612
 6847SOL    HW221198   4.596   4.558   5.456
 6848SOL     OW21199   4.409   4.736   4.389
 6848SOL    HW121200   4.478   4.720   4.459
 6848SOL    HW221201   4.336   4.793   4.427
 6849SOL     OW21202   4.410   4.885   5.527
 6849SOL    HW121203   4.470   4.964   5.541
 6849SOL    HW221204   4.324   4.916   5.486
 6850SOL     OW21205   4.059   5.159   4.785
 6850SOL    HW121206   3.981   5.128   4.732
 6850SOL    HW221207   4.117   5.217   4.728
 6851SOL     OW21208   5.184   5.229   5.063
 6851SOL    HW121209   5.208   5.323   5.089
 6851SOL    HW221210   5.168   5.175   5.145
 6852SOL     OW21211   4.162   4.116   5.223
 6852SOL    HW121212   4.244   4.060   5.232
 6852SOL    HW221213   4.081   4.058   5.227
 6853SOL     OW21214   4.851   5.065   5.414
 6853SOL    HW121215   4.898   5.065   5.502
 6853SOL    HW221216   4.803   4.978   5.403
 6854SOL     OW21217   3.954   5.158   4.262
 6854SOL    HW121218   3.928   5.254   4.262
 6854SOL    HW221219   3.883   5.104   4.307
 6855SOL     OW21220   3.964   4.815   4.610
 6855SOL    HW121221   3.978   4.731   4.662
 6855SOL    HW221222   3.909   4.879   4.665
 6856SOL     OW21223   4.330   4.688   3.847
 6856SOL    HW121224   4.337   4.772   3.793
 6856SOL    HW221225   4.376   4.701   3.935
 6857SOL     OW21226   3.846   4.367   4.287
 6857SOL    HW121227   3.801   4.279   4.304
 6857SOL    HW221228   3.845   4.421   4.371
 6858SOL     OW21229   3.751   5.320   3.841
 6858SOL    HW121230   3.732   5.224   3.862
 6858SOL    HW221231   3.718   5.378   3.916
 6859SOL     OW21232   5.413   4.646   4.336
 6859SOL    HW121233   5.508   4.617   4.344
 6859SOL    HW221234   5.405   4.711   4.261
 6860SOL     OW21235   3.837   4.461   5.321
 6860SOL    HW121236   3.925   4.448   5.366
 6860SOL    HW221237   3.824   4.558   5.299
 6861SOL     OW21238   4.337   5.089   4.450
 6861SOL    HW121239   4.288   5.002   4.459
 6861SOL    HW221240   4.314   5.132   4.363
 6862SOL     OW21241   5.017   4.952   5.147
 6862SOL    HW121242   5.054   4.879   5.089
 6862SOL    HW221243   5.069   4.957   5.232
 6863SOL     OW21244   4.533   3.728   4.226
 6863SOL    HW121245   4.573   3.819   4.217
 6863SOL    HW221246   4.433   3.736   4.232
 6864SOL     OW21247   3.921   4.700   4.988
 6864SOL    HW121248   4.010   4.655   4.974
 6864SOL    HW221249   3.848   4.635   4.969
 6865SOL     OW21250   4.041   3.975   5.525
 6865SOL    HW121251   4.112   4.046   5.531
 6865SOL    HW221252   3.953   4.014   5.553
 6866SOL     OW21253   5.190   5.141   4.677
 6866SOL    HW121254   5.131   5.147   4.757
 6866SOL    HW221255   5.175   5.053   4.631
 6867SOL     OW21256   5.391   5.438   4.296
 6867SOL    HW121257   5.350   5.415   4.208
 6867SOL    HW221258   5.373   5.364   4.361
 6868SOL     OW21259   4.322   4.453   3.994
 6868SOL    HW121260   4.346   4.522   3.926
 6868SOL    HW221261   4.244   4.486   4.048
 6869SOL     OW21262   5.005   4.069   4.668
 6869SOL    HW121263   4.919   4.019   4.655
 6869SOL    HW221264   5.067   4.015   4.724
 6870SOL     OW21265   4.531   4.329   5.189
 6870SOL    HW121266   4.484   4.326   5.278
 6870SOL    HW221267   4.480   4.274   5.123
 6871SOL     OW21268   5.118   4.193   5.398
 6871SOL    HW121269   5.098   4.236   5.486
 6871SOL    HW221270   5.196   4.131   5.407
 6872SOL     OW21271   4.697   4.614   5.296
 6872SOL    HW121272   4.743   4.530   5.267
 6872SOL    HW221273   4.641   4.648   5.221
 6873SOL     OW21274   4.715   4.134   4.966
 6873SOL    HW121275   4.638   4.168   5.020
 6873SOL    HW221276   4.681   4.083   4.887
 6874SOL     OW21277   4.765   4.425   4.153
 6874SOL    HW121278   4.791   4.421   4.249
 6874SOL    HW221279   4.680   4.374   4.139
 6875SOL     OW21280   3.800   4.535   4.513
 6875SOL    HW121281   3.899   4.523   4.522
 6875SOL    HW221282   3.776   4.630   4.534
 6876SOL     OW21283   4.589   4.072   3.919
 6876SOL    HW121284   4.648   4.135   3.870
 6876SOL    HW221285   4.608   3.978   3.890
 6877SOL     OW21286   5.086   4.868   4.269
 6877SOL    HW121287   5.169   4.839   4.221
 6877SOL    HW221288   5.037   4.935   4.213
 6878SOL     OW21289   4.274   3.920   4.609
 6878SOL    HW121290   4.269   3.915   4.709
 6878SOL    HW221291   4.276   4.016   4.580
 6879SOL     OW21292   4.732   5.180   4.201
 6879SOL    HW121293   4.686   5.252   4.149
 6879SOL    HW221294   4.728   5.200   4.299
 6880SOL     OW21295   4.951   5.274   5.230
 6880SOL    HW121296   4.957   5.197   5.294
 6880SOL    HW221297   4.899   5.248   5.150
 6881SOL     OW21298   4.045   4.667   3.966
 6881SOL    HW121299   4.127   4.706   3.924
 6881SOL    HW221300   4.018   4.585   3.917
 6882SOL     OW21301   4.185   4.990   5.451
 6882SOL    HW121302   4.135   4.991   5.365
 6882SOL    HW221303   4.122   4.972   5.527
 6883SOL     OW21304   4.835   5.500   3.961
 6883SOL    HW121305   4.775   5.438   4.011
 6883SOL    HW221306   4.866   5.456   3.876
 6884SOL     OW21307   3.926   4.009   5.222
 6884SOL    HW121308   3.846   4.069   5.209
 6884SOL    HW221309   3.916   3.960   5.308
 6885SOL     OW21310   5.124   3.831   4.150
 6885SOL    HW121311   5.100   3.794   4.060
 6885SOL    HW221312   5.223   3.847   4.154
 6886SOL     OW21313   4.106   4.424   4.204
 6886SOL    HW121314   4.151   4.334   4.201
 6886SOL    HW221315   4.012   4.413   4.237
 6887SOL     OW21316   4.338   3.846   3.841
 6887SOL    HW121317   4.436   3.824   3.848
 6887SOL    HW221318   4.307   3.829   3.748
 6888SOL     OW21319   4.505   3.988   5.473
 6888SOL    HW121320   4.572   3.927   5.516
 6888SOL    HW221321   4.432   4.007   5.538
 6889SOL     OW21322   5.075   4.314   5.157
 6889SOL    HW121323   5.103   4.271   5.242
 6889SOL    HW221324   5.100   4.410   5.158
 6890SOL     OW21325   4.527   5.126   4.648
 6890SOL    HW121326   4.617   5.140   4.606
 6890SOL    HW221327   4.456   5.128   4.577
 6891SOL     OW21328   4.646   4.227   4.623
 6891SOL    HW121329   4.621   4.218   4.527
 6891SOL    HW221330   4.694   4.145   4.654
 6892SOL     OW21331   4.263   3.788   4.236
 6892SOL    HW121332   4.182   3.789   4.294
 6892SOL    HW221333   4.266   3.871   4.181
 6893SOL     OW21334   5.158   4.912   3.765
 6893SOL    HW121335   5.190   4.836   3.822
 6893SOL    HW221336   5.066   4.939   3.795
 6894SOL     OW21337   4.021   3.759   3.895
 6894SOL    HW121338   4.070   3.843   3.874
 6894SOL    HW221339   4.083   3.694   3.940
 6895SOL     OW21340   4.659   3.960   4.204
 6895SOL    HW121341   4.611   4.001   4.126
 6895SOL    HW221342   4.758   3.958   4.185
 6896SOL     OW21343   4.800   4.407   5.188
 6896SOL    HW121344   4.720   4.346   5.191
 6896SOL    HW221345   4.881   4.354   5.164
 6897SOL     OW21346   4.951   5.294   4.517
 6897SOL    HW121347   4.972   5.368   4.452
 6897SOL    HW221348   5.019   5.294   4.590
 6898SOL     OW21349   4.183   4.876   4.465
 6898SOL    HW121350   4.112   4.849   4.530
 6898SOL    HW221351   4.157   4.848   4.372
 6899SOL     OW21352   4.756   4.273   3.740
 6899SOL    HW121353   4.715   4.355   3.701
 6899SOL    HW221354   4.820   4.299   3.813
 6900SOL     OW21355   3.802   4.280   5.110
 6900SOL    HW121356   3.894   4.279   5.069
 6900SOL    HW221357   3.796   4.354   5.177
 6901SOL     OW21358   4.285   3.946   4.871
 6901SOL    HW121359   4.323   3.862   4.908
 6901SOL    HW221360   4.197   3.965   4.915
 6902SOL     OW21361   4.590   4.178   4.366
 6902SOL    HW121362   4.558   4.250   4.304
 6902SOL    HW221363   4.614   4.097   4.313
 6903SOL     OW21364   4.741   3.763   4.477
 6903SOL    HW121365   4.669   3.768   4.408
 6903SOL    HW221366   4.717   3.694   4.546
 6904SOL     OW21367   5.153   4.897   4.591
 6904SOL    HW121368   5.098   4.813   4.584
 6904SOL    HW221369   5.179   4.926   4.499
 6905SOL     OW21370   4.212   5.109   3.898
 6905SOL    HW121371   4.125   5.094   3.945
 6905SOL    HW221372   4.195   5.135   3.803
 6906SOL     OW21373   5.114   4.299   3.802
 6906SOL    HW121374   5.060   4.278   3.883
 6906SOL    HW221375   5.205   4.258   3.811
 6907SOL     OW21376   4.251   3.980   4.052
 6907SOL    HW121377   4.278   3.921   3.977
 6907SOL    HW221378   4.251   4.075   4.021
 6908SOL     OW21379   4.788   5.071   5.064
 6908SOL    HW121380   4.708   5.048   5.119
 6908SOL    HW221381   4.871   5.045   5.113
 6909SOL     OW21382   4.835   4.919   4.824
 6909SOL    HW121383   4.795   4.963   4.905
 6909SOL    HW221384   4.794   4.956   4.741
 6910SOL     OW21385   4.639   3.813   5.126
 6910SOL    HW121386   4.664   3.793   5.031
 6910SOL    HW221387   4.711   3.869   5.168
 6911SOL     OW21388   4.704   4.840   5.443
 6911SOL    HW121389   4.605   4.846   5.453
 6911SOL    HW221390   4.727   4.760   5.387
 6912SOL     OW21391   4.429   4.774   4.092
 6912SOL    HW121392   4.415   4.781   4.191
 6912SOL    HW221393   4.513   4.723   4.074
 6913SOL     OW21394   4.134   4.537   4.975
 6913SOL    HW121395   4.220   4.549   5.025
 6913SOL    HW221396   4.092   4.450   5.002
 6914SOL     OW21397   4.998   4.110   4.986
 6914SOL    HW121398   5.019   4.184   5.050
 6914SOL    HW221399   4.909   4.127   4.943
 6915SOL     OW21400   4.091   4.824   4.225
 6915SOL    HW121401   4.084   4.907   4.169
 6915SOL    HW221402   4.095   4.744   4.165
 6916SOL     OW21403   4.290   4.261   4.589
 6916SOL    HW121404   4.302   4.327   4.515
 6916SOL    HW221405   4.336   4.295   4.672
 6917SOL     OW21406   4.976   5.072   4.112
 6917SOL    HW121407   5.026   5.149   4.152
 6917SOL    HW221408   4.881   5.074   4.144
 6918SOL     OW21409   4.996   5.169   4.866
 6918SOL    HW121410   5.043   5.182   4.953
 6918SOL    HW221411   4.930   5.095   4.875
 6919SOL     OW21412   4.078   5.234   5.053
 6919SOL    HW121413   4.057   5.190   4.966
 6919SOL    HW221414   4.175   5.260   5.056
 6920SOL     OW21415   4.126   4.475   5.322
 6920SOL    HW121416   4.194   4.530   5.275
 6920SOL    HW221417   4.166   4.387   5.349
 6921SOL     OW21418   4.737   3.829   5.494
 6921SOL    HW121419   4.743   3.914   5.442
 6921SOL    HW221420   4.769   3.753   5.437
 6922SOL     OW21421   4.228   3.774   5.464
 6922SOL    HW121422   4.186   3.717   5.394
 6922SOL    HW221423   4.162   3.843   5.496
 6923SOL     OW21424   4.297   4.594   4.753
 6923SOL    HW121425   4.341   4.683   4.744
 6923SOL    HW221426   4.234   4.594   4.830
 6924SOL     OW21427   5.084   4.586   4.769
 6924SOL    HW121428   5.009   4.586   4.703
 6924SOL    HW221429   5.121   4.494   4.778
 6925SOL     OW21430   4.933   4.249   3.999
 6925SOL    HW121431   4.946   4.165   4.053
 6925SOL    HW221432   4.904   4.323   4.059
 6926SOL     OW21433   4.031   3.937   4.955
 6926SOL    HW121434   4.008   3.974   5.045
 6926SOL    HW221435   4.001   3.842   4.949
 6927SOL     OW21436   3.761   5.034   5.006
 6927SOL    HW121437   3.814   4.985   5.074
 6927SOL    HW221438   3.783   5.132   5.011
 6928SOL     OW21439   4.456   4.358   4.788
 6928SOL    HW121440   4.515   4.332   4.712
 6928SOL    HW221441   4.428   4.454   4.777
 6929SOL     OW21442   4.031   3.787   4.342
 6929SOL    HW121443   4.020   3.881   4.375
 6929SOL    HW221444   4.026   3.724   4.419
 6930SOL     OW21445   5.346   4.091   4.098
 6930SOL    HW121446   5.348   4.015   4.162
 6930SOL    HW221447   5.298   4.168   4.138
 6931SOL     OW21448   4.747   4.490   4.690
 6931SOL    HW121449   4.762   4.511   4.786
 6931SOL    HW221450   4.717   4.395   4.681
 6932SOL     OW21451   4.074   4.622   5.528
 6932SOL    HW121452   4.150   4.666   5.576
 6932SOL    HW221453   4.109   4.575   5.446
 6933SOL     OW21454   5.027   4.562   3.766
 6933SOL    HW121455   5.061   4.469   3.781
 6933SOL    HW221456   5.045   4.589   3.671
 6934SOL     OW21457   4.792   5.057   4.573
 6934SOL    HW121458   4.799   4.973   4.518
 6934SOL    HW221459   4.854   5.126   4.537
 6935SOL     OW21460   4.043   4.534   4.673
 6935SOL    HW121461   4.136   4.570   4.678
 6935SOL    HW221462   4.037   4.449   4.725
 6936SOL     OW21463   4.063   4.233   4.730
 6936SOL    HW121464   4.011   4.150   4.713
 6936SOL    HW221465   4.140   4.238   4.666
 6937SOL     OW21466   4.862   4.104   5.402
 6937SOL    HW121467   4.817   4.167   5.466
 6937SOL    HW221468   4.955   4.135   5.385
 6938SOL     OW21469   4.884   3.931   5.201
 6938SOL    HW121470   4.884   3.995   5.278
 6938SOL    HW221471   4.912   3.979   5.118
 6939SOL     OW21472   3.732   5.050   3.924
 6939SOL    HW121473   3.639   5.071   3.893
 6939SOL    HW221474   3.742   4.951   3.937
 6940SOL     OW21475   4.726   4.520   4.962
 6940SOL    HW121476   4.767   4.488   5.048
 6940SOL    HW221477   4.630   4.493   4.959
 6941SOL     OW21478   3.764   4.268   4.838
 6941SOL    HW121479   3.849   4.235   4.797
 6941SOL    HW221480   3.777   4.283   4.936
 6942SOL     OW21481   3.913   4.244   5.446
 6942SOL    HW121482   3.972   4.204   5.376
 6942SOL    HW221483   3.855   4.315   5.405
 6943SOL     OW21484   5.093   4.674   5.384
 6943SOL    HW121485   5.132   4.763   5.404
 6943SOL    HW221486   5.103   4.654   5.287
 6944SOL     OW21487   4.539   4.296   4.049
 6944SOL    HW121488   4.546   4.207   4.003
 6944SOL    HW221489   4.445   4.330   4.041
 6945SOL     OW21490   3.976   5.288   5.468
 6945SOL    HW121491   3.946   5.345   5.544
 6945SOL    HW221492   3.969   5.191   5.494
 6946SOL     OW21493   4.395   4.188   4.993
 6946SOL    HW121494   4.361   4.099   4.963
 6946SOL    HW221495   4.421   4.242   4.913
 6947SOL     OW21496   4.197   4.224   3.915
 6947SOL    HW121497   4.258   4.304   3.919
 6947SOL    HW221498   4.102   4.255   3.922
 6948SOL     OW21499   3.883   4.861   5.190
 6948SOL    HW121500   3.905   4.800   5.266
 6948SOL    HW221501   3.893   4.812   5.104
 6949SOL     OW21502   5.071   4.783   4.958
 6949SOL    HW121503   5.095   4.720   4.884
 6949SOL    HW221504   4.981   4.823   4.940
 6950SOL     OW21505   5.026   4.579   4.033
 6950SOL    HW121506   4.940   4.548   4.075
 6950SOL    HW221507   5.022   4.565   3.934
 6951SOL     OW21508   3.807   4.982   4.746
 6951SOL    HW121509   3.802   4.981   4.846
 6951SOL    HW221510   3.724   4.941   4.708
 6952SOL     OW21511   4.412   5.386   5.440
 6952SOL    HW121512   4.356   5.467   5.449
 6952SOL    HW221513   4.464   5.390   5.354
 6953SOL     OW21514   5.450   3.859   4.247
 6953SOL    HW121515   5.523   3.842   4.180
 6953SOL    HW221516   5.419   3.772   4.285
 6954SOL     OW21517   5.004   4.651   4.396
 6954SOL    HW121518   5.064   4.570   4.398
 6954SOL    HW221519   5.044   4.720   4.336
 6955SOL     OW21520   4.554   4.997   5.146
 6955SOL    HW121521   4.549   5.030   5.241
 6955SOL    HW221522   4.468   5.016   5.100
 6956SOL     OW21523   3.987   4.050   4.444
 6956SOL    HW121524   3.908   4.101   4.410
 6956SOL    HW221525   3.978   4.035   4.542
 6957SOL     OW21526   4.546   4.726   5.096
 6957SOL    HW121527   4.586   4.725   5.004
 6957SOL    HW221528   4.556   4.818   5.136
 6958SOL     OW21529   4.640   4.634   4.015
 6958SOL    HW121530   4.703   4.672   3.947
 6958SOL    HW221531   4.680   4.551   4.054
 6959SOL     OW21532   4.096   5.012   5.214
 6959SOL    HW121533   4.083   5.105   5.180
 6959SOL    HW221534   4.012   4.960   5.201
 6960SOL     OW21535   4.763   4.822   4.420
 6960SOL    HW121536   4.693   4.775   4.474
 6960SOL    HW221537   4.822   4.754   4.377
 6961SOL     OW21538   4.738   3.960   4.695
 6961SOL    HW121539   4.730   3.924   4.602
 6961SOL    HW221540   4.736   3.884   4.760
 6962SOL     OW21541   3.979   5.072   4.014
 6962SOL    HW121542   3.883   5.073   3.987
 6962SOL    HW221543   3.991   5.125   4.098
 6963SOL     OW21544   3.829   4.737   5.450
 6963SOL    HW121545   3.752   4.704   5.504
 6963SOL    HW221546   3.914   4.707   5.492
 6964SOL     OW21547   4.396   3.927   5.213
 6964SOL    HW121548   4.486   3.911   5.173
 6964SOL    HW221549   4.404   3.932   5.312
 6965SOL     OW21550   3.799   4.069   3.757
 6965SOL    HW121551   3.707   4.041   3.728
 6965SOL    HW221552   3.830   4.146   3.701
 6966SOL     OW21553   5.164   4.580   5.122
 6966SOL    HW121554   5.107   4.632   5.059
 6966SOL    HW221555   5.260   4.592   5.098
 6967SOL     OW21556   3.796   3.890   4.042
 6967SOL    HW121557   3.779   3.973   3.988
 6967SOL    HW221558   3.886   3.853   4.020
 6968SOL     OW21559   4.907   5.059   3.843
 6968SOL    HW121560   4.808   5.048   3.845
 6968SOL    HW221561   4.941   5.074   3.936
 6969SOL     OW21562   4.337   4.566   5.155
 6969SOL    HW121563   4.393   4.647   5.138
 6969SOL    HW221564   4.396   4.486   5.158
 6970SOL     OW21565   4.440   4.289   5.432
 6970SOL    HW121566   4.459   4.354   5.506
 6970SOL    HW221567   4.500   4.209   5.441
 6971SOL     OW21568   5.174   4.944   5.357
 6971SOL    HW121569   5.165   4.934   5.456
 6971SOL    HW221570   5.270   4.937   5.331
 6972SOL     OW21571   4.949   4.049   4.173
 6972SOL    HW121572   5.014   3.975   4.162
 6972SOL    HW221573   4.969   4.099   4.257
 6973SOL     OW21574   4.318   4.469   4.376
 6973SOL    HW121575   4.368   4.554   4.357
 6973SOL    HW221576   4.230   4.471   4.328
 6974SOL     OW21577   4.583   5.098   3.740
 6974SOL    HW121578   4.537   5.113   3.828
 6974SOL    HW221579   4.627   5.183   3.710
 6975SOL     OW21580   4.583   4.680   4.585
 6975SOL    HW121581   4.637   4.611   4.633
 6975SOL    HW221582   4.551   4.749   4.651
 6976SOL     OW21583   4.807   4.708   3.811
 6976SOL    HW121584   4.784   4.761   3.729
 6976SOL    HW221585   4.888   4.652   3.792
 6977SOL     OW21586   3.945   5.038   5.568
 6977SOL    HW121587   3.880   4.965   5.547
 6977SOL    HW221588   3.949   5.052   5.666
 6978SOL     OW21589   3.803   4.964   4.377
 6978SOL    HW121590   3.802   4.917   4.465
 6978SOL    HW221591   3.885   4.936   4.326
 6979SOL     OW21592   4.396   5.115   5.348
 6979SOL    HW121593   4.318   5.065   5.386
 6979SOL    HW221594   4.393   5.210   5.379
 6980SOL     OW21595   4.152   4.148   4.244
 6980SOL    HW121596   4.182   4.076   4.182
 6980SOL    HW221597   4.113   4.108   4.327
 6981SOL     OW21598   5.429   5.211   4.828
 6981SOL    HW121599   5.336   5.186   4.801
 6981SOL    HW221600   5.455   5.161   4.910
 6982SOL     OW21601   4.041   4.271   5.004
 6982SOL    HW121602   4.079   4.212   5.076
 6982SOL    HW221603   4.081   4.245   4.916
 6983SOL     OW21604   5.148   3.938   4.836
 6983SOL    HW121605   5.200   3.873   4.891
 6983SOL    HW221606   5.099   4.001   4.897
 6984SOL     OW21607   4.725   3.758   4.878
 6984SOL    HW121608   4.662   3.686   4.847
 6984SOL    HW221609   4.818   3.722   4.878
 6985SOL     OW21610   4.494   5.054   4.025
 6985SOL    HW121611   4.448   4.967   4.042
 6985SOL    HW221612   4.585   5.051   4.066
 6986SOL     OW21613   4.342   5.291   5.008
 6986SOL    HW121614   4.337   5.373   5.065
 6986SOL    HW221615   4.431   5.288   4.963
 6987SOL     OW21616   5.076   3.776   3.892
 6987SOL    HW121617   5.111   3.735   3.808
 6987SOL    HW221618   4.986   3.738   3.912
 6988SOL     OW21619   5.024   4.177   4.415
 6988SOL    HW121620   4.965   4.257   4.419
 6988SOL    HW221621   5.039   4.142   4.508
 6989SOL     OW21622   5.317   3.945   4.606
 6989SOL    HW121623   5.233   3.944   4.660
 6989SOL    HW221624   5.319   4.028   4.550
 6990SOL     OW21625   3.763   4.801   4.024
 6990SOL    HW121626   3.862   4.790   4.015
 6990SOL    HW221627   3.723   4.715   4.056
 6991SOL     OW21628   3.954   4.352   5.699
 6991SOL    HW121629   3.861   4.350   5.736
 6991SOL    HW221630   3.955   4.313   5.607
 6992SOL     OW21631   3.949   3.999   6.582
 6992SOL    HW121632   3.984   3.982   6.674
 6992SOL    HW221633   3.861   3.954   6.570
 6993SOL     OW21634   3.743   4.092   6.233
 6993SOL    HW121635   3.661   4.135   6.272
 6993SOL    HW221636   3.715   4.019   6.170
 6994SOL     OW21637   4.293   4.999   6.751
 6994SOL    HW121638   4.200   4.992   6.714
 6994SOL    HW221639   4.304   5.088   6.795
 6995SOL     OW21640   5.279   5.235   6.289
 6995SOL    HW121641   5.222   5.219   6.370
 6995SOL    HW221642   5.220   5.245   6.209
 6996SOL     OW21643   4.859   4.427   6.303
 6996SOL    HW121644   4.916   4.505   6.278
 6996SOL    HW221645   4.799   4.453   6.379
 6997SOL     OW21646   4.492   4.868   6.609
 6997SOL    HW121647   4.414   4.885   6.669
 6997SOL    HW221648   4.526   4.955   6.573
 6998SOL     OW21649   4.574   4.522   7.409
 6998SOL    HW121650   4.570   4.598   7.474
 6998SOL    HW221651   4.596   4.558   7.318
 6999SOL     OW21652   4.409   4.736   6.251
 6999SOL    HW121653   4.478   4.720   6.321
 6999SOL    HW221654   4.336   4.793   6.289
 7000SOL     OW21655   4.410   4.885   7.389
 7000SOL    HW121656   4.470   4.964   7.403
 7000SOL    HW221657   4.324   4.916   7.348
 7001SOL     OW21658   4.059   5.159   6.647
 7001SOL    HW121659   3.981   5.128   6.594
 7001SOL    HW221660   4.117   5.217   6.590
 7002SOL     OW21661   5.184   5.229   6.925
 7002SOL    HW121662   5.208   5.323   6.951
 7002SOL    HW221663   5.168   5.175   7.007
 7003SOL     OW21664   4.162   4.116   7.085
 7003SOL    HW121665   4.244   4.060   7.094
 7003SOL    HW221666   4.081   4.058   7.089
 7004SOL     OW21667   4.851   5.065   7.276
 7004SOL    HW121668   4.898   5.065   7.364
 7004SOL    HW221669   4.803   4.978   7.265
 7005SOL     OW21670   3.954   5.158   6.124
 7005SOL    HW121671   3.928   5.254   6.124
 7005SOL    HW221672   3.883   5.104   6.169
 7006SOL     OW21673   3.964   4.815   6.472
 7006SOL    HW121674   3.978   4.731   6.524
 7006SOL    HW221675   3.909   4.879   6.527
 7007SOL     OW21676   4.330   4.688   5.709
 7007SOL    HW121677   4.337   4.772   5.655
 7007SOL    HW221678   4.376   4.701   5.797
 7008SOL     OW21679   3.846   4.367   6.149
 7008SOL    HW121680   3.801   4.279   6.166
 7008SOL    HW221681   3.845   4.421   6.233
 7009SOL     OW21682   3.751   5.320   5.703
 7009SOL    HW121683   3.732   5.224   5.724
 7009SOL    HW221684   3.718   5.378   5.778
 7010SOL     OW21685   5.413   4.646   6.198
 7010SOL    HW121686   5.508   4.617   6.206
 7010SOL    HW221687   5.405   4.711   6.123
 7011SOL     OW21688   3.837   4.461   7.183
 7011SOL    HW121689   3.925   4.448   7.228
 7011SOL    HW221690   3.824   4.558   7.161
 7012SOL     OW21691   4.337   5.089   6.312
 7012SOL    HW121692   4.288   5.002   6.321
 7012SOL    HW221693   4.314   5.132   6.225
 7013SOL     OW21694   5.017   4.952   7.009
 7013SOL    HW121695   5.054   4.879   6.951
 7013SOL    HW221696   5.069   4.957   7.094
 7014SOL     OW21697   4.533   3.728   6.088
 7014SOL    HW121698   4.573   3.819   6.079
 7014SOL    HW221699   4.433   3.736   6.094
 7015SOL     OW21700   3.921   4.700   6.850
 7015SOL    HW121701   4.010   4.655   6.836
 7015SOL    HW221702   3.848   4.635   6.831
 7016SOL     OW21703   4.041   3.975   7.387
 7016SOL    HW121704   4.112   4.046   7.393
 7016SOL    HW221705   3.953   4.014   7.415
 7017SOL     OW21706   5.190   5.141   6.539
 7017SOL    HW121707   5.131   5.147   6.619
 7017SOL    HW221708   5.175   5.053   6.493
 7018SOL     OW21709   5.391   5.438   6.158
 7018SOL    HW121710   5.350   5.415   6.070
 7018SOL    HW221711   5.373   5.364   6.223
 7019SOL     OW21712   4.322   4.453   5.856
 7019SOL    HW121713   4.346   4.522   5.788
 7019SOL    HW221714   4.244   4.486   5.910
 7020SOL     OW21715   5.005   4.069   6.530
 7020SOL    HW121716   4.919   4.019   6.517
 7020SOL    HW221717   5.067   4.015   6.586
 7021SOL     OW21718   4.531   4.329   7.051
 7021SOL    HW121719   4.484   4.326   7.140
 7021SOL    HW221720   4.480   4.274   6.985
 7022SOL     OW21721   5.118   4.193   7.260
 7022SOL    HW121722   5.098   4.236   7.348
 7022SOL    HW221723   5.196   4.131   7.269
 7023SOL     OW21724   4.697   4.614   7.158
 7023SOL    HW121725   4.743   4.530   7.129
 7023SOL    HW221726   4.641   4.648   7.083
 7024SOL     OW21727   4.715   4.134   6.828
 7024SOL    HW121728   4.638   4.168   6.882
 7024SOL    HW221729   4.681   4.083   6.749
 7025SOL     OW21730   4.765   4.425   6.015
 7025SOL    HW121731   4.791   4.421   6.111
 7025SOL    HW221732   4.680   4.374   6.001
 7026SOL     OW21733   3.800   4.535   6.375
 7026SOL    HW121734   3.899   4.523   6.384
 7026SOL    HW221735   3.776   4.630   6.396
 7027SOL     OW21736   4.589   4.072   5.781
 7027SOL    HW121737   4.648   4.135   5.732
 7027SOL    HW221738   4.608   3.978   5.752
 7028SOL     OW21739   5.086   4.868   6.131
 7028SOL    HW121740   5.169   4.839   6.083
 7028SOL    HW221741   5.037   4.935   6.075
 7029SOL     OW21742   4.274   3.920   6.471
 7029SOL    HW121743   4.269   3.915   6.571
 7029SOL    HW221744   4.276   4.016   6.442
 7030SOL     OW21745   4.732   5.180   6.063
 7030SOL    HW121746   4.686   5.252   6.011
 7030SOL    HW221747   4.728   5.200   6.161
 7031SOL     OW21748   4.951   5.274   7.092
 7031SOL    HW121749   4.957   5.197   7.156
 7031SOL    HW221750   4.899   5.248   7.012
 7032SOL     OW21751   4.045   4.667   5.828
 7032SOL    HW121752   4.127   4.706   5.786
 7032SOL    HW221753   4.018   4.585   5.779
 7033SOL     OW21754   4.185   4.990   7.313
 7033SOL    HW121755   4.135   4.991   7.227
 7033SOL    HW221756   4.122   4.972   7.389
 7034SOL     OW21757   4.835   5.500   5.823
 7034SOL    HW121758   4.775   5.438   5.873
 7034SOL    HW221759   4.866   5.456   5.738
 7035SOL     OW21760   3.926   4.009   7.084
 7035SOL    HW121761   3.846   4.069   7.071
 7035SOL    HW221762   3.916   3.960   7.170
 7036SOL     OW21763   5.124   3.831   6.012
 7036SOL    HW121764   5.100   3.794   5.922
 7036SOL    HW221765   5.223   3.847   6.016
 7037SOL     OW21766   4.106   4.424   6.066
 7037SOL    HW121767   4.151   4.334   6.063
 7037SOL    HW221768   4.012   4.413   6.099
 7038SOL     OW21769   4.338   3.846   5.703
 7038SOL    HW121770   4.436   3.824   5.710
 7038SOL    HW221771   4.307   3.829   5.610
 7039SOL     OW21772   4.505   3.988   7.335
 7039SOL    HW121773   4.572   3.927   7.378
 7039SOL    HW221774   4.432   4.007   7.400
 7040SOL     OW21775   5.075   4.314   7.019
 7040SOL    HW121776   5.103   4.271   7.104
 7040SOL    HW221777   5.100   4.410   7.020
 7041SOL     OW21778   4.527   5.126   6.510
 7041SOL    HW121779   4.617   5.140   6.468
 7041SOL    HW221780   4.456   5.128   6.439
 7042SOL     OW21781   4.646   4.227   6.485
 7042SOL    HW121782   4.621   4.218   6.389
 7042SOL    HW221783   4.694   4.145   6.516
 7043SOL     OW21784   4.263   3.788   6.098
 7043SOL    HW121785   4.182   3.789   6.156
 7043SOL    HW221786   4.266   3.871   6.043
 7044SOL     OW21787   5.158   4.912   5.627
 7044SOL    HW121788   5.190   4.836   5.684
 7044SOL    HW221789   5.066   4.939   5.657
 7045SOL     OW21790   4.021   3.759   5.757
 7045SOL    HW121791   4.070   3.843   5.736
 7045SOL    HW221792   4.083   3.694   5.802
 7046SOL     OW21793   4.659   3.960   6.066
 7046SOL    HW121794   4.611   4.001   5.988
 7046SOL    HW221795   4.758   3.958   6.047
 7047SOL     OW21796   4.800   4.407   7.050
 7047SOL    HW121797   4.720   4.346   7.053
 7047SOL    HW221798   4.881   4.354   7.026
 7048SOL     OW21799   4.951   5.294   6.379
 7048SOL    HW121800   4.972   5.368   6.314
 7048SOL    HW221801   5.019   5.294   6.452
 7049SOL     OW21802   4.183   4.876   6.327
 7049SOL    HW121803   4.112   4.849   6.392
 7049SOL    HW221804   4.157   4.848   6.234
 7050SOL     OW21805   4.756   4.273   5.602
 7050SOL    HW121806   4.715   4.355   5.563
 7050SOL    HW221807   4.820   4.299   5.675
 7051SOL     OW21808   3.802   4.280   6.972
 7051SOL    HW121809   3.894   4.279   6.931
 7051SOL    HW221810   3.796   4.354   7.039
 7052SOL     OW21811   4.285   3.946   6.733
 7052SOL    HW121812   4.323   3.862   6.770
 7052SOL    HW221813   4.197   3.965   6.777
 7053SOL     OW21814   4.590   4.178   6.228
 7053SOL    HW121815   4.558   4.250   6.166
 7053SOL    HW221816   4.614   4.097   6.175
 7054SOL     OW21817   4.741   3.763   6.339
 7054SOL    HW121818   4.669   3.768   6.270
 7054SOL    HW221819   4.717   3.694   6.408
 7055SOL     OW21820   5.153   4.897   6.453
 7055SOL    HW121821   5.098   4.813   6.446
 7055SOL    HW221822   5.179   4.926   6.361
 7056SOL     OW21823   4.212   5.109   5.760
 7056SOL    HW121824   4.125   5.094   5.807
 7056SOL    HW221825   4.195   5.135   5.665
 7057SOL     OW21826   5.114   4.299   5.664
 7057SOL    HW121827   5.060   4.278   5.745
 7057SOL    HW221828   5.205   4.258   5.673
 7058SOL     OW21829   4.251   3.980   5.914
 7058SOL    HW121830   4.278   3.921   5.839
 7058SOL    HW221831   4.251   4.075   5.883
 7059SOL     OW21832   4.788   5.071   6.926
 7059SOL    HW121833   4.708   5.048   6.981
 7059SOL    HW221834   4.871   5.045   6.975
 7060SOL     OW21835   4.835   4.919   6.686
 7060SOL    HW121836   4.795   4.963   6.767
 7060SOL    HW221837   4.794   4.956   6.603
 7061SOL     OW21838   4.639   3.813   6.988
 7061SOL    HW121839   4.664   3.793   6.893
 7061SOL    HW221840   4.711   3.869   7.030
 7062SOL     OW21841   4.704   4.840   7.305
 7062SOL    HW121842   4.605   4.846   7.315
 7062SOL    HW221843   4.727   4.760   7.249
 7063SOL     OW21844   4.429   4.774   5.954
 7063SOL    HW121845   4.415   4.781   6.053
 7063SOL    HW221846   4.513   4.723   5.936
 7064SOL     OW21847   4.134   4.537   6.837
 7064SOL    HW121848   4.220   4.549   6.887
 7064SOL    HW221849   4.092   4.450   6.864
 7065SOL     OW21850   4.998   4.110   6.848
 7065SOL    HW121851   5.019   4.184   6.912
 7065SOL    HW221852   4.909   4.127   6.805
 7066SOL     OW21853   4.091   4.824   6.087
 7066SOL    HW121854   4.084   4.907   6.031
 7066SOL    HW221855   4.095   4.744   6.027
 7067SOL     OW21856   4.290   4.261   6.451
 7067SOL    HW121857   4.302   4.327   6.377
 7067SOL    HW221858   4.336   4.295   6.534
 7068SOL     OW21859   4.976   5.072   5.974
 7068SOL    HW121860   5.026   5.149   6.014
 7068SOL    HW221861   4.881   5.074   6.006
 7069SOL     OW21862   4.996   5.169   6.728
 7069SOL    HW121863   5.043   5.182   6.815
 7069SOL    HW221864   4.930   5.095   6.737
 7070SOL     OW21865   4.078   5.234   6.915
 7070SOL    HW121866   4.057   5.190   6.828
 7070SOL    HW221867   4.175   5.260   6.918
 7071SOL     OW21868   4.126   4.475   7.184
 7071SOL    HW121869   4.194   4.530   7.137
 7071SOL    HW221870   4.166   4.387   7.211
 7072SOL     OW21871   4.737   3.829   7.356
 7072SOL    HW121872   4.743   3.914   7.304
 7072SOL    HW221873   4.769   3.753   7.299
 7073SOL     OW21874   4.228   3.774   7.326
 7073SOL    HW121875   4.186   3.717   7.256
 7073SOL    HW221876   4.162   3.843   7.358
 7074SOL     OW21877   4.297   4.594   6.615
 7074SOL    HW121878   4.341   4.683   6.606
 7074SOL    HW221879   4.234   4.594   6.692
 7075SOL     OW21880   5.084   4.586   6.631
 7075SOL    HW121881   5.009   4.586   6.565
 7075SOL    HW221882   5.121   4.494   6.640
 7076SOL     OW21883   4.933   4.249   5.861
 7076SOL    HW121884   4.946   4.165   5.915
 7076SOL    HW221885   4.904   4.323   5.921
 7077SOL     OW21886   4.031   3.937   6.817
 7077SOL    HW121887   4.008   3.974   6.907
 7077SOL    HW221888   4.001   3.842   6.811
 7078SOL     OW21889   3.761   5.034   6.868
 7078SOL    HW121890   3.814   4.985   6.936
 7078SOL    HW221891   3.783   5.132   6.873
 7079SOL     OW21892   4.456   4.358   6.650
 7079SOL    HW121893   4.515   4.332   6.574
 7079SOL    HW221894   4.428   4.454   6.639
 7080SOL     OW21895   4.031   3.787   6.204
 7080SOL    HW121896   4.020   3.881   6.237
 7080SOL    HW221897   4.026   3.724   6.281
 7081SOL     OW21898   5.346   4.091   5.960
 7081SOL    HW121899   5.348   4.015   6.024
 7081SOL    HW221900   5.298   4.168   6.000
 7082SOL     OW21901   4.747   4.490   6.552
 7082SOL    HW121902   4.762   4.511   6.648
 7082SOL    HW221903   4.717   4.395   6.543
 7083SOL     OW21904   4.074   4.622   7.390
 7083SOL    HW121905   4.150   4.666   7.438
 7083SOL    HW221906   4.109   4.575   7.308
 7084SOL     OW21907   5.027   4.562   5.628
 7084SOL    HW121908   5.061   4.469   5.643
 7084SOL    HW221909   5.045   4.589   5.533
 7085SOL     OW21910   4.792   5.057   6.435
 7085SOL    HW121911   4.799   4.973   6.380
 7085SOL    HW221912   4.854   5.126   6.399
 7086SOL     OW21913   4.043   4.534   6.535
 7086SOL    HW121914   4.136   4.570   6.540
 7086SOL    HW221915   4.037   4.449   6.587
 7087SOL     OW21916   4.063   4.233   6.592
 7087SOL    HW121917   4.011   4.150   6.575
 7087SOL    HW221918   4.140   4.238   6.528
 7088SOL     OW21919   4.862   4.104   7.264
 7088SOL    HW121920   4.817   4.167   7.328
 7088SOL    HW221921   4.955   4.135   7.247
 7089SOL     OW21922   4.884   3.931   7.063
 7089SOL    HW121923   4.884   3.995   7.140
 7089SOL    HW221924   4.912   3.979   6.980
 7090SOL     OW21925   3.732   5.050   5.786
 7090SOL    HW121926   3.639   5.071   5.755
 7090SOL    HW221927   3.742   4.951   5.799
 7091SOL     OW21928   4.726   4.520   6.824
 7091SOL    HW121929   4.767   4.488   6.910
 7091SOL    HW221930   4.630   4.493   6.821
 7092SOL     OW21931   3.764   4.268   6.700
 7092SOL    HW121932   3.849   4.235   6.659
 7092SOL    HW221933   3.777   4.283   6.798
 7093SOL     OW21934   3.913   4.244   7.308
 7093SOL    HW121935   3.972   4.204   7.238
 7093SOL    HW221936   3.855   4.315   7.267
 7094SOL     OW21937   5.093   4.674   7.246
 7094SOL    HW121938   5.132   4.763   7.266
 7094SOL    HW221939   5.103   4.654   7.149
 7095SOL     OW21940   4.539   4.296   5.911
 7095SOL    HW121941   4.546   4.207   5.865
 7095SOL    HW221942   4.445   4.330   5.903
 7096SOL     OW21943   3.976   5.288   7.330
 7096SOL    HW121944   3.946   5.345   7.406
 7096SOL    HW221945   3.969   5.191   7.356
 7097SOL     OW21946   4.395   4.188   6.855
 7097SOL    HW121947   4.361   4.099   6.825
 7097SOL    HW221948   4.421   4.242   6.775
 7098SOL     OW21949   4.197   4.224   5.777
 7098SOL    HW121950   4.258   4.304   5.781
 7098SOL    HW221951   4.102   4.255   5.784
 7099SOL     OW21952   3.883   4.861   7.052
 7099SOL    HW121953   3.905   4.800   7.128
 7099SOL    HW221954   3.893   4.812   6.966
 7100SOL     OW21955   5.071   4.783   6.820
 7100SOL    HW121956   5.095   4.720   6.746
 7100SOL    HW221957   4.981   4.823   6.802
 7101SOL     OW21958   5.026   4.579   5.895
 7101SOL    HW121959   4.940   4.548   5.937
 7101SOL    HW221960   5.022   4.565   5.796
 7102SOL     OW21961   3.807   4.982   6.608
 7102SOL    HW121962   3.802   4.981   6.708
 7102SOL    HW221963   3.724   4.941   6.570
 7103SOL     OW21964   4.412   5.386   7.302
 7103SOL    HW121965   4.356   5.467   7.311
 7103SOL    HW221966   4.464   5.390   7.216
 7104SOL     OW21967   5.450   3.859   6.109
 7104SOL    HW121968   5.523   3.842   6.042
 7104SOL    HW221969   5.419   3.772   6.147
 7105SOL     OW21970   5.004   4.651   6.258
 7105SOL    HW121971   5.064   4.570   6.260
 7105SOL    HW221972   5.044   4.720   6.198
 7106SOL     OW21973   4.554   4.997   7.008
 7106SOL    HW121974   4.549   5.030   7.103
 7106SOL    HW221975   4.468   5.016   6.962
 7107SOL     OW21976   3.987   4.050   6.306
 7107SOL    HW121977   3.908   4.101   6.272
 7107SOL    HW221978   3.978   4.035   6.404
 7108SOL     OW21979   4.546   4.726   6.958
 7108SOL    HW121980   4.586   4.725   6.866
 7108SOL    HW221981   4.556   4.818   6.998
 7109SOL     OW21982   4.640   4.634   5.877
 7109SOL    HW121983   4.703   4.672   5.809
 7109SOL    HW221984   4.680   4.551   5.916
 7110SOL     OW21985   4.096   5.012   7.076
 7110SOL    HW121986   4.083   5.105   7.042
 7110SOL    HW221987   4.012   4.960   7.063
 7111SOL     OW21988   4.763   4.822   6.282
 7111SOL    HW121989   4.693   4.775   6.336
 7111SOL    HW221990   4.822   4.754   6.239
 7112SOL     OW21991   4.738   3.960   6.557
 7112SOL    HW121992   4.730   3.924   6.464
 7112SOL    HW221993   4.736   3.884   6.622
 7113SOL     OW21994   3.979   5.072   5.876
 7113SOL    HW121995   3.883   5.073   5.849
 7113SOL    HW221996   3.991   5.125   5.960
 7114SOL     OW21997   3.829   4.737   7.312
 7114SOL    HW121998   3.752   4.704   7.366
 7114SOL    HW221999   3.914   4.707   7.354
 7115SOL     OW22000   4.396   3.927   7.075
 7115SOL    HW122001   4.486   3.911   7.035
 7115SOL    HW222002   4.404   3.932   7.174
 7116SOL     OW22003   3.799   4.069   5.619
 7116SOL    HW122004   3.707   4.041   5.590
 7116SOL    HW222005   3.830   4.146   5.563
 7117SOL     OW22006   5.164   4.580   6.984
 7117SOL    HW122007   5.107   4.632   6.921
 7117SOL    HW222008   5.260   4.592   6.960
 7118SOL     OW22009   3.796   3.890   5.904
 7118SOL    HW122010   3.779   3.973   5.850
 7118SOL    HW222011   3.886   3.853   5.882
 7119SOL     OW22012   4.907   5.059   5.705
 7119SOL    HW122013   4.808   5.048   5.707
 7119SOL    HW222014   4.941   5.074   5.798
 7120SOL     OW22015   4.337   4.566   7.017
 7120SOL    HW122016   4.393   4.647   7.000
 7120SOL    HW222017   4.396   4.486   7.020
 7121SOL     OW22018   4.440   4.289   7.294
 7121SOL    HW122019   4.459   4.354   7.368
 7121SOL    HW222020   4.500   4.209   7.303
 7122SOL     OW22021   5.174   4.944   7.219
 7122SOL    HW122022   5.165   4.934   7.318
 7122SOL    HW222023   5.270   4.937   7.193
 7123SOL     OW22024   4.949   4.049   6.035
 7123SOL    HW122025   5.014   3.975   6.024
 7123SOL    HW222026   4.969   4.099   6.119
 7124SOL     OW22027   4.318   4.469   6.238
 7124SOL    HW122028   4.368   4.554   6.219
 7124SOL    HW222029   4.230   4.471   6.190
 7125SOL     OW22030   4.583   5.098   5.602
 7125SOL    HW122031   4.537   5.113   5.690
 7125SOL    HW222032   4.627   5.183   5.572
 7126SOL     OW22033   4.583   4.680   6.447
 7126SOL    HW122034   4.637   4.611   6.495
 7126SOL    HW222035   4.551   4.749   6.513
 7127SOL     OW22036   4.807   4.708   5.673
 7127SOL    HW122037   4.784   4.761   5.591
 7127SOL    HW222038   4.888   4.652   5.654
 7128SOL     OW22039   3.945   5.038   7.430
 7128SOL    HW122040   3.880   4.965   7.409
 7128SOL    HW222041   3.949   5.052   7.528
 7129SOL     OW22042   3.803   4.964   6.239
 7129SOL    HW122043   3.802   4.917   6.327
 7129SOL    HW222044   3.885   4.936   6.188
 7130SOL     OW22045   4.396   5.115   7.210
 7130SOL    HW122046   4.318   5.065   7.248
 7130SOL    HW222047   4.393   5.210   7.241
 7131SOL     OW22048   4.152   4.148   6.106
 7131SOL    HW122049   4.182   4.076   6.044
 7131SOL    HW222050   4.113   4.108   6.189
 7132SOL     OW22051   5.429   5.211   6.690
 7132SOL    HW122052   5.336   5.186   6.663
 7132SOL    HW222053   5.455   5.161   6.772
 7133SOL     OW22054   4.041   4.271   6.866
 7133SOL    HW122055   4.079   4.212   6.938
 7133SOL    HW222056   4.081   4.245   6.778
 7134SOL     OW22057   5.148   3.938   6.698
 7134SOL    HW122058   5.200   3.873   6.753
 7134SOL    HW222059   5.099   4.001   6.759
 7135SOL     OW22060   4.725   3.758   6.740
 7135SOL    HW122061   4.662   3.686   6.709
 7135SOL    HW222062   4.818   3.722   6.740
 7136SOL     OW22063   4.494   5.054   5.887
 7136SOL    HW122064   4.448   4.967   5.904
 7136SOL    HW222065   4.585   5.051   5.928
 7137SOL     OW22066   4.342   5.291   6.870
 7137SOL    HW122067   4.337   5.373   6.927
 7137SOL    HW222068   4.431   5.288   6.825
 7138SOL     OW22069   5.076   3.776   5.754
 7138SOL    HW122070   5.111   3.735   5.670
 7138SOL    HW222071   4.986   3.738   5.774
 7139SOL     OW22072   5.024   4.177   6.277
 7139SOL    HW122073   4.965   4.257   6.281
 7139SOL    HW222074   5.039   4.142   6.370
 7140SOL     OW22075   5.317   3.945   6.468
 7140SOL    HW122076   5.233   3.944   6.522
 7140SOL    HW222077   5.319   4.028   6.412
 7141SOL     OW22078   3.763   4.801   5.886
 7141SOL    HW122079   3.862   4.790   5.877
 7141SOL    HW222080   3.723   4.715   5.918
 7142SOL     OW22081   3.954   4.352   7.561
 7142SOL    HW122082   3.861   4.350   7.598
 7142SOL    HW222083   3.955   4.313   7.469
 7143SOL     OW22084   3.955   5.437   7.931
 7143SOL    HW122085   3.989   5.514   7.985
 7143SOL    HW222086   3.999   5.437   7.841
 7144SOL     OW22087   3.954   5.158   7.986
 7144SOL    HW122088   3.928   5.254   7.986
 7144SOL    HW222089   3.883   5.104   8.031
 7145SOL     OW22090   4.330   4.688   7.571
 7145SOL    HW122091   4.337   4.772   7.517
 7145SOL    HW222092   4.376   4.701   7.659
 7146SOL     OW22093   3.751   5.320   7.565
 7146SOL    HW122094   3.732   5.224   7.586
 7146SOL    HW222095   3.718   5.378   7.640
 7147SOL     OW22096   5.413   4.646   8.060
 7147SOL    HW122097   5.508   4.617   8.068
 7147SOL    HW222098   5.405   4.711   7.985
 7148SOL     OW22099   4.533   3.728   7.950
 7148SOL    HW122100   4.573   3.819   7.941
 7148SOL    HW222101   4.433   3.736   7.956
 7149SOL     OW22102   4.322   4.453   7.718
 7149SOL    HW122103   4.346   4.522   7.650
 7149SOL    HW222104   4.244   4.486   7.772
 7150SOL     OW22105   3.800   4.535   8.237
 7150SOL    HW122106   3.899   4.523   8.246
 7150SOL    HW222107   3.776   4.630   8.258
 7151SOL     OW22108   4.589   4.072   7.643
 7151SOL    HW122109   4.648   4.135   7.594
 7151SOL    HW222110   4.608   3.978   7.614
 7152SOL     OW22111   4.045   4.667   7.690
 7152SOL    HW122112   4.127   4.706   7.648
 7152SOL    HW222113   4.018   4.585   7.641
 7153SOL     OW22114   4.835   5.500   7.685
 7153SOL    HW122115   4.775   5.438   7.735
 7153SOL    HW222116   4.866   5.456   7.600
 7154SOL     OW22117   5.124   3.831   7.874
 7154SOL    HW122118   5.100   3.794   7.784
 7154SOL    HW222119   5.223   3.847   7.878
 7155SOL     OW22120   4.106   4.424   7.928
 7155SOL    HW122121   4.151   4.334   7.925
 7155SOL    HW222122   4.012   4.413   7.961
 7156SOL     OW22123   4.338   3.846   7.565
 7156SOL    HW122124   4.436   3.824   7.572
 7156SOL    HW222125   4.307   3.829   7.472
 7157SOL     OW22126   4.263   3.788   7.960
 7157SOL    HW122127   4.182   3.789   8.018
 7157SOL    HW222128   4.266   3.871   7.905
 7158SOL     OW22129   5.158   4.912   7.489
 7158SOL    HW122130   5.190   4.836   7.546
 7158SOL    HW222131   5.066   4.939   7.519
 7159SOL     OW22132   4.021   3.759   7.619
 7159SOL    HW122133   4.070   3.843   7.598
 7159SOL    HW222134   4.083   3.694   7.664
 7160SOL     OW22135   4.659   3.960   7.928
 7160SOL    HW122136   4.611   4.001   7.850
 7160SOL    HW222137   4.758   3.958   7.909
 7161SOL     OW22138   4.183   4.876   8.189
 7161SOL    HW122139   4.112   4.849   8.254
 7161SOL    HW222140   4.157   4.848   8.096
 7162SOL     OW22141   4.756   4.273   7.464
 7162SOL    HW122142   4.715   4.355   7.425
 7162SOL    HW222143   4.820   4.299   7.537
 7163SOL     OW22144   4.212   5.109   7.622
 7163SOL    HW122145   4.125   5.094   7.669
 7163SOL    HW222146   4.195   5.135   7.527
 7164SOL     OW22147   5.114   4.299   7.526
 7164SOL    HW122148   5.060   4.278   7.607
 7164SOL    HW222149   5.205   4.258   7.535
 7165SOL     OW22150   4.251   3.980   7.776
 7165SOL    HW122151   4.278   3.921   7.701
 7165SOL    HW222152   4.251   4.075   7.745
 7166SOL     OW22153   4.429   4.774   7.816
 7166SOL    HW122154   4.415   4.781   7.915
 7166SOL    HW222155   4.513   4.723   7.798
 7167SOL     OW22156   4.091   4.824   7.949
 7167SOL    HW122157   4.084   4.907   7.893
 7167SOL    HW222158   4.095   4.744   7.889
 7168SOL     OW22159   4.976   5.072   7.836
 7168SOL    HW122160   5.026   5.149   7.876
 7168SOL    HW222161   4.881   5.074   7.868
 7169SOL     OW22162   5.306   4.363   7.920
 7169SOL    HW122163   5.275   4.424   7.993
 7169SOL    HW222164   5.356   4.415   7.851
 7170SOL     OW22165   4.933   4.249   7.723
 7170SOL    HW122166   4.946   4.165   7.777
 7170SOL    HW222167   4.904   4.323   7.783
 7171SOL     OW22168   5.346   4.091   7.822
 7171SOL    HW122169   5.348   4.015   7.886
 7171SOL    HW222170   5.298   4.168   7.862
 7172SOL     OW22171   5.027   4.562   7.490
 7172SOL    HW122172   5.061   4.469   7.505
 7172SOL    HW222173   5.045   4.589   7.395
 7173SOL     OW22174   3.732   5.050   7.648
 7173SOL    HW122175   3.639   5.071   7.617
 7173SOL    HW222176   3.742   4.951   7.661
 7174SOL     OW22177   4.539   4.296   7.773
 7174SOL    HW122178   4.546   4.207   7.727
 7174SOL    HW222179   4.445   4.330   7.765
 7175SOL     OW22180   4.197   4.224   7.639
 7175SOL    HW122181   4.258   4.304   7.643
 7175SOL    HW222182   4.102   4.255   7.646
 7176SOL     OW22183   5.026   4.579   7.757
 7176SOL    HW122184   4.940   4.548   7.799
 7176SOL    HW222185   5.022   4.565   7.658
 7177SOL     OW22186   5.450   3.859   7.971
 7177SOL    HW122187   5.523   3.842   7.904
 7177SOL    HW222188   5.419   3.772   8.009
 7178SOL     OW22189   4.640   4.634   7.739
 7178SOL    HW122190   4.703   4.672   7.671
 7178SOL    HW222191   4.680   4.551   7.778
 7179SOL     OW22192   3.979   5.072   7.738
 7179SOL    HW122193   3.883   5.073   7.711
 7179SOL    HW222194   3.991   5.125   7.822
 7180SOL     OW22195   3.799   4.069   7.481
 7180SOL    HW122196   3.707   4.041   7.452
 7180SOL    HW222197   3.830   4.146   7.425
 7181SOL     OW22198   3.796   3.890   7.766
 7181SOL    HW122199   3.779   3.973   7.712
 7181SOL    HW222200   3.886   3.853   7.744
 7182SOL     OW22201   4.907   5.059   7.567
 7182SOL    HW122202   4.808   5.048   7.569
 7182SOL    HW222203   4.941   5.074   7.660
 7183SOL     OW22204   4.949   4.049   7.897
 7183SOL    HW122205   5.014   3.975   7.886
 7183SOL    HW222206   4.969   4.099   7.981
 7184SOL     OW22207   4.318   4.469   8.100
 7184SOL    HW122208   4.368   4.554   8.081
 7184SOL    HW222209   4.230   4.471   8.052
 7185SOL     OW22210   4.583   5.098   7.464
 7185SOL    HW122211   4.537   5.113   7.552
 7185SOL    HW222212   4.627   5.183   7.434
 7186SOL     OW22213   4.807   4.708   7.535
 7186SOL    HW122214   4.784   4.761   7.453
 7186SOL    HW222215   4.888   4.652   7.516
 7187SOL     OW22216   4.152   4.148   7.968
 7187SOL    HW122217   4.182   4.076   7.906
 7187SOL    HW222218   4.113   4.108   8.051
 7188SOL     OW22219   4.494   5.054   7.749
 7188SOL    HW122220   4.448   4.967   7.766
 7188SOL    HW222221   4.585   5.051   7.790
 7189SOL     OW22222   5.076   3.776   7.616
 7189SOL    HW122223   5.111   3.735   7.532
 7189SOL    HW222224   4.986   3.738   7.636
 7190SOL     OW22225   3.763   4.801   7.748
 7190SOL    HW122226   3.862   4.790   7.739
 7190SOL    HW222227   3.723   4.715   7.780
   5.30000   5.30000   8.08000
